216
energy=-936.16179597 time=1.00000000 Lattice="16.320000 0.000000 0.000000 0.000000 16.320000 0.000000 0.000000 0.000000 16.320000" Properties=species:S:1:pos:R:3:Z:I:1:travel:I:3:mass:R:1:move_mask:I:1:damp_mask:I:1:thermostat_region:I:1:avg_ke:R:1:velo:R:3:acc:R:3:avgpos:R:3:oldpos:R:3:force:R:3
Si             -0.00961162     -0.00746084      0.00709017      14       0       0       0   2910.85773629       1       1       1      0.00285726     -0.00959040     -0.00743162      0.00707785      0.00004245      0.00005845     -0.00002464     -0.00009564     -0.00007424      0.00007055      0.00000000      0.00000000      0.00000000      0.12356872      0.17014784     -0.07171638
Si              1.36539157      1.36590000      1.35807070      14       0       0       0   2910.85773629       1       1       1      0.00097133      0.00538326      0.00586397     -0.00192533     -0.00001664     -0.00007206      0.00000794      1.36005365      1.36005871      1.35998080      1.36000000      1.36000000      1.36000000     -0.04842528     -0.20975656      0.02311505
Si              2.72324915      2.71099725     -0.00841581      14       0       0       0   2910.85773629       1       1       1      0.00234160      0.00323353     -0.00897367     -0.00840894     -0.00003123      0.00005815      0.00001372      2.72003233      2.71991042     -0.00008374      2.72000000      2.72000000      0.00000000     -0.09090397      0.16927340      0.03995073
Si              4.07109827      4.07645750      1.35372310      14       0       0       0   2910.85773629       1       1       1      0.00188900     -0.00887101     -0.00354931     -0.00625681      0.00006144     -0.00001360      0.00004018      4.07991143      4.07996475      1.35993754      4.08000000      4.08000000      1.36000000      0.17883678     -0.03959956      0.11696324
Si              2.72821635     -0.00291745      2.72414316      14       0       0       0   2910.85773629       1       1       1      0.00134110      0.00820389     -0.00288258      0.00412231     -0.00002492      0.00006975     -0.00004169      2.72008175     -0.00002903      2.72004123      2.72000000      0.00000000      2.72000000     -0.07254105      0.20302530     -0.12136613
Si              4.07563767      1.37000181      4.07992216      14       0       0       0   2910.85773629       1       1       1      0.00171351     -0.00436155      0.00996465     -0.00006510      0.00000155     -0.00007433      0.00002549      4.07995659      1.36009952      4.07999923      4.08000000      1.36000000      4.08000000      0.00450466     -0.21635027      0.07419645
Si              0.00272674      2.72234775      2.71577483      14       0       0       0   2910.85773629       1       1       1      0.00044230      0.00272778      0.00233803     -0.00419933      0.00000209     -0.00001945      0.00005168      0.00002713      2.72002336      2.71995796      0.00000000      2.72000000      2.72000000      0.00608853     -0.05662715      0.15044398
Si              1.35924994      4.08664687      4.08443208      14       0       0       0   2910.85773629       1       1       1      0.00092755     -0.00074289      0.00663725      0.00440961      0.00001434     -0.00001925     -0.00004495      1.35999254      4.08006614      4.08004410      1.36000000      4.08000000      4.08000000      0.04174285     -0.05601955     -0.13082901
Si              0.00024179      0.00257656      5.43261002      14       0       0       0   2910.85773629       1       1       1      0.00088439      0.00026205      0.00256392     -0.00737745      0.00004053     -0.00002529      0.00002506      0.00000241      0.00002564      5.43992647      0.00000000      0.00000000      5.44000000      0.11796506     -0.07360309      0.07293354
Si              1.35349412      1.36377324      6.80283990      14       0       0       0   2910.85773629       1       1       1      0.00093587     -0.00651044      0.00376677      0.00283722     -0.00000912     -0.00001293     -0.00000536      1.35993527      1.36003754      6.80002826      1.36000000      1.36000000      6.80000000     -0.02653608     -0.03763848     -0.01559938
Si              2.71075810      2.71321022      5.43986866      14       0       0       0   2910.85773629       1       1       1      0.00189503     -0.00923100     -0.00675505     -0.00012082      0.00002181      0.00006946      0.00002103      2.71990804      2.71993244      5.43999869      2.72000000      2.72000000      5.44000000      0.06348243      0.20217814      0.06121719
Si              4.07668810      4.08708015      6.79665488      14       0       0       0   2910.85773629       1       1       1      0.00104105     -0.00331283      0.00705502     -0.00333748     -0.00000187     -0.00005027      0.00001529      4.07996705      4.08007045      6.79996672      4.08000000      4.08000000      6.80000000     -0.00543042     -0.14631573      0.04449909
Si              2.72407633      0.00900774      8.15509466      14       0       0       0   2910.85773629       1       1       1      0.00175675      0.00405973      0.00899592     -0.00488877     -0.00003321     -0.00002365      0.00003315      2.72004056      0.00008963      8.15995119      2.72000000      0.00000000      8.16000000     -0.09667308     -0.06883747      0.09649941
Si              4.07321660      1.36995546     -6.79666650      14       0       0       1   2910.85773629       1       1       1      0.00225076     -0.00676133      0.00992592      0.00334380      0.00004415     -0.00005908      0.00002060      4.07993250      1.36009906      9.52003317      4.08000000      1.36000000      9.52000000      0.12850034     -0.17196466      0.05996213
Si             -0.00167618      2.72822944     -8.15471642      14       0       0       1   2910.85773629       1       1       1      0.00142302     -0.00168199      0.00821906      0.00528022     -0.00001163     -0.00002077     -0.00000672     -0.00001668      2.72008188      8.16005257      0.00000000      2.72000000      8.16000000     -0.03384236     -0.06046701     -0.01955051
Si              1.36116953      4.08624435     -6.79872919      14       0       0       1   2910.85773629       1       1       1      0.00060746      0.00117177      0.00623880      0.00128476      0.00000448     -0.00001110      0.00002792      1.36001164      4.08006213      9.52001264      1.36000000      4.08000000      9.52000000      0.01305204     -0.03231674      0.08125771
Si              0.00066986     -0.00387358     -5.44705503      14       0       0       1   2910.85773629       1       1       1      0.00093341      0.00065605     -0.00385548     -0.00701134     -0.00002761      0.00003619      0.00008738      0.00000667     -0.00003854     10.87992980      0.00000000      0.00000000     10.88000000     -0.08038030      0.10534693      0.25436133
Si              1.36805770      1.36435186     -4.07677688      14       0       0       1   2910.85773629       1       1       1      0.00134883      0.00799859      0.00433641      0.00321841     -0.00011821     -0.00003090     -0.00000942      1.36008018      1.36004330     12.24003207      1.36000000      1.36000000     12.24000000     -0.34409838     -0.08995721     -0.02742002
Si              2.71055953      2.71168241     -5.43259691      14       0       0       1   2910.85773629       1       1       1      0.00306666     -0.00942656     -0.00827530      0.00737698      0.00002783      0.00008458     -0.00005222      2.71990607      2.71991724     10.88007366      2.72000000      2.72000000     10.88000000      0.08101638      0.24619757     -0.15201518
Si              4.07077378      4.08473671     -4.08794173      14       0       0       1   2910.85773629       1       1       1      0.00245664     -0.00921405      0.00470925     -0.00790956      0.00002433     -0.00005492      0.00006434      4.07990820      4.08004713     12.23992098      4.08000000      4.08000000     12.24000000      0.07083570     -0.15986483      0.18728364
Si              2.71225283      0.00742371     -2.72350893      14       0       0       1   2910.85773629       1       1       1      0.00183446     -0.00771668      0.00740601     -0.00350397      0.00006097     -0.00003540      0.00000992      2.71992291      0.00007387     13.59996509      2.72000000      0.00000000     13.60000000      0.17748072     -0.10303851      0.02887057
Si              4.07827269      1.36089420     -1.36082912      14       0       0       1   2910.85773629       1       1       1      0.00006405     -0.00170648      0.00088528     -0.00085268      0.00004165     -0.00001785     -0.00004712      4.07998281      1.36000890     14.95999175      4.08000000      1.36000000     14.96000000      0.12124381     -0.05195106     -0.13714674
Si              0.00333643      2.72788422     -2.71417418      14       0       0       1   2910.85773629       1       1       1      0.00154551      0.00332619      0.00786583      0.00581260     -0.00002047     -0.00003677     -0.00002643      0.00003320      2.72007845     13.60005797      0.00000000      2.72000000     13.60000000     -0.05959378     -0.10703937     -0.07692670
Si              1.36286125      4.08541900     -1.35912934      14       0       0       1   2910.85773629       1       1       1      0.00055198      0.00284541      0.00540487      0.00089821     -0.00003167     -0.00002825      0.00005510      1.36002847      4.08005392     14.96000866      1.36000000      4.08000000     14.96000000     -0.09219013     -0.08224305      0.16040152
Si              0.00071008      5.44582796      0.00734382      14       0       0       0   2910.85773629       1       1       1      0.00127041      0.00069683      0.00581523      0.00730907     -0.00002649     -0.00002547     -0.00006949      0.00000707      5.44005799      0.00007307      0.00000000      5.44000000      0.00000000     -0.07712308     -0.07413282     -0.20227141
Si              1.35480194      6.80557088      1.35147937      14       0       0       0   2910.85773629       1       1       1      0.00187862     -0.00518591      0.00556419     -0.00847756      0.00002429     -0.00001338      0.00008615      1.35994828      6.80005543      1.35991522      1.36000000      6.80000000      1.36000000      0.07071500     -0.03894635      0.25075958
Si              2.71105559      8.15287182     -0.00657517      14       0       0       0   2910.85773629       1       1       1      0.00250263     -0.00891496     -0.00708565     -0.00656729      0.00005889      0.00008505      0.00001575      2.71991100      8.15992907     -0.00006542      2.72000000      8.16000000      0.00000000      0.17141649      0.24757061      0.04584733
Si              4.07937458     -6.79383705      1.36753576      14       0       1       0   2910.85773629       1       1       1      0.00136545     -0.00062803      0.00613120      0.00750345     -0.00000521     -0.00006349     -0.00006461      4.07999378      9.52006132      1.36007498      4.08000000      9.52000000      1.36000000     -0.01516861     -0.18481099     -0.18805805
Si              2.72798380      5.44656459      2.72074744      14       0       0       0   2910.85773629       1       1       1      0.00154357      0.00794370      0.00655370      0.00073053     -0.00008021     -0.00002178     -0.00003382      2.72007944      5.44006532      2.72000744      2.72000000      5.44000000      2.72000000     -0.23347600     -0.06340698     -0.09844939
Si              4.07310590      6.79820341      4.08426941      14       0       0       0   2910.85773629       1       1       1      0.00099328     -0.00686940     -0.00178945      0.00426585      0.00004942      0.00001428     -0.00000712      4.07993140      6.79998212      4.08004248      4.08000000      6.80000000      4.08000000      0.14384737      0.04156992     -0.02073658
Si             -0.00506315     -8.15199882      2.71662298      14       0       1       0   2910.85773629       1       1       1      0.00146067     -0.00506233      0.00798602     -0.00338508      0.00000162     -0.00003033     -0.00001612     -0.00005038      8.16007961      2.71996640      0.00000000      8.16000000      2.72000000      0.00472451     -0.08829249     -0.04692252
Si              1.35924992     -6.80083423      4.07516265      14       0       1       0   2910.85773629       1       1       1      0.00035530     -0.00074282     -0.00082645     -0.00482695      0.00001452      0.00001557      0.00002081      1.35999254      9.51999170      4.07995187      1.36000000      9.52000000      4.08000000      0.04226702      0.04531055      0.06056870
Si             -0.00016430      5.44349395      5.43724379      14       0       0       0   2910.85773629       1       1       1      0.00028693     -0.00016471      0.00350057     -0.00274450     -0.00000081      0.00001323      0.00002342     -0.00000163      5.44003477      5.43997258      0.00000000      5.44000000      5.44000000     -0.00236192      0.03851010      0.06816162
Si              1.36369149      6.80930402      6.79416841      14       0       0       0   2910.85773629       1       1       1      0.00192640      0.00368559      0.00926036     -0.00580383     -0.00001181     -0.00008733      0.00005552      1.36003673      6.80009258      6.79994197      1.36000000      6.80000000      6.80000000     -0.03437094     -0.25419988      0.16160633
Si              2.71668545      8.15225130      5.44206221      14       0       0       0   2910.85773629       1       1       1      0.00107980     -0.00330547     -0.00771017      0.00204690      0.00001817      0.00007705     -0.00003063      2.71996702      8.15992290      5.44002052      2.72000000      8.16000000      5.44000000      0.05290309      0.22428567     -0.08916854
Si              4.07780133     -6.80709628      6.80638906      14       0       1       0   2910.85773629       1       1       1      0.00138751     -0.00218846     -0.00709485      0.00637847      0.00002042      0.00000285     -0.00002118      4.07997812      9.51992939      6.80006357      4.08000000      9.52000000      6.80000000      0.05944193      0.00830943     -0.06165111
Si              2.72792072      5.44624435     -8.15115805      14       0       0       1   2910.85773629       1       1       1      0.00258736      0.00789054      0.00623885      0.00880225     -0.00006035     -0.00001100     -0.00007939      2.72007881      5.44006213      8.16008798      2.72000000      5.44000000      8.16000000     -0.17567422     -0.03203099     -0.23108443
Si              4.08509909      6.79624900     -6.80726129      14       0       0       1   2910.85773629       1       1       1      0.00133055      0.00510068     -0.00373670     -0.00720400      0.00000319      0.00002860      0.00011458      4.08005074      6.79996268      9.51992775      4.08000000      6.80000000      9.52000000      0.00929604      0.08326101      0.33353960
Si              0.00807118      8.15665322     -8.15781045      14       0       0       1   2910.85773629       1       1       1      0.00117105      0.00805401     -0.00334497      0.00219266     -0.00003434      0.00000363      0.00000622      0.00008031      8.15996670      8.16002179      0.00000000      8.16000000      8.16000000     -0.09995645      0.01056890      0.01811650
Si              1.36646581     -6.80668719     -6.79788895      14       0       1       1   2910.85773629       1       1       1      0.00131293      0.00645338     -0.00667218      0.00212060     -0.00002486      0.00003003      0.00001911      1.36006434      9.51993346      9.52002101      1.36000000      9.52000000      9.52000000     -0.07235115      0.08740465      0.05561284
Si              0.00271357      5.44810284     -5.43611705      14       0       0       1   2910.85773629       1       1       1      0.00126968      0.00270345      0.00808641      0.00386989     -0.00002023     -0.00003285     -0.00002614      0.00002700      5.44008062     10.88003864      0.00000000      5.44000000     10.88000000     -0.05889992     -0.09561609     -0.07608221
Si              1.36771788      6.80366332     -4.08784652      14       0       0       1   2910.85773629       1       1       1      0.00193921      0.00771514      0.00364685     -0.00781562     -0.00000548     -0.00003294      0.00006180      1.36007679      6.80003645     12.23992193      1.36000000      6.80000000     12.24000000     -0.01594578     -0.09588791      0.17990155
Si              2.72414156     -8.15702620     -5.43241040      14       0       1       1   2910.85773629       1       1       1      0.00120412      0.00415979      0.00295770      0.00755615      0.00003646     -0.00003219     -0.00006691      2.72004121      8.16002959     10.88007552      2.72000000      8.16000000     10.88000000      0.10612094     -0.09370556     -0.19475227
Si              4.07808074     -6.80202423     -4.07421254      14       0       1       1   2910.85773629       1       1       1      0.00059458     -0.00189155     -0.00201516      0.00578089      0.00005543      0.00001815     -0.00001314      4.07998090      9.51997986     12.24005759      4.08000000      9.52000000     12.24000000      0.16134204      0.05283195     -0.03825464
Si              2.71385946      5.43223346     -2.71283799      14       0       0       1   2910.85773629       1       1       1      0.00214469     -0.00611879     -0.00772974      0.00713492      0.00004350      0.00007358     -0.00005417      2.71993890      5.43992272     13.60007126      2.72000000      5.44000000     13.60000000      0.12662000      0.21419527     -0.15768781
Si              4.08420011      6.79940351     -1.36070813      14       0       0       1   2910.85773629       1       1       1      0.00026633      0.00418480     -0.00060675     -0.00071406     -0.00003062     -0.00002050     -0.00001186      4.08004179      6.79999406     14.95999295      4.08000000      6.80000000     14.96000000     -0.08913739     -0.05968261     -0.03451589
Si              0.00561428      8.15750612     -2.72937257      14       0       0       1   2910.85773629       1       1       1      0.00181288      0.00559758     -0.00248655     -0.00936312     -0.00003340      0.00001466      0.00001891      0.00005586      8.15997519     13.59990674      0.00000000      8.16000000     13.60000000     -0.09723659      0.04268605      0.05505227
Si              1.35352682     -6.79363557     -1.36348346      14       0       1       1   2910.85773629       1       1       1      0.00136295     -0.00646584      0.00634352     -0.00347383      0.00001470     -0.00004182      0.00001926      1.35993559      9.52006333     14.95996534      1.36000000      9.52000000     14.96000000      0.04277752     -0.12174631      0.05605633
Si              0.00425544     -5.43608501      0.00593089      14       0       1       0   2910.85773629       1       1       1      0.00099007      0.00424574      0.00391017      0.00592036     -0.00001940     -0.00000963     -0.00002104      0.00004234     10.88003895      0.00005901      0.00000000     10.88000000      0.00000000     -0.05648446     -0.02802769     -0.06124822
Si              1.35744255     -4.07861164      1.36526189      14       0       1       0   2910.85773629       1       1       1      0.00051889     -0.00253701      0.00140067      0.00523762      0.00004088      0.00002462     -0.00004855      1.35997455     12.24001381      1.36005236      1.36000000     12.24000000      1.36000000      0.11898166      0.07165241     -0.14132982
Si              2.72912208     -2.71643580      0.00056505      14       0       1       0   2910.85773629       1       1       1      0.00138292      0.00908327      0.00356137      0.00055205     -0.00007762     -0.00000565     -0.00002600      2.72009077     13.60003546      0.00000562      2.72000000     13.60000000      0.00000000     -0.22594456     -0.01645589     -0.07567945
Si              4.07664688     -1.35713743      1.36221424      14       0       1       0   2910.85773629       1       1       1      0.00035013     -0.00333735      0.00285678      0.00220865      0.00003154     -0.00001157     -0.00001118      4.07996664     14.96002848      1.36002203      4.08000000     14.96000000      1.36000000      0.09180976     -0.03366881     -0.03253680
Si              2.72057424     -5.43519061      2.71583814      14       0       1       0   2910.85773629       1       1       1      0.00058756      0.00057427      0.00480954     -0.00413654      0.00000006      0.00000031      0.00005064      2.72000571     10.88004785      2.71995859      2.72000000     10.88000000      2.72000000      0.00017809      0.00091184      0.14741839
Si              4.08930296     -4.07650229      4.07628100      14       0       1       0   2910.85773629       1       1       1      0.00162242      0.00928216      0.00349083     -0.00369968     -0.00004161     -0.00001376      0.00003862      4.08009257     12.24003480      4.07996300      4.08000000     12.24000000      4.08000000     -0.12112667     -0.04006634      0.11242919
Si             -0.00748906     -2.72415382      2.71151678      14       0       1       0   2910.85773629       1       1       1      0.00208747     -0.00746025     -0.00413947     -0.00844715      0.00005764      0.00002870      0.00007215     -0.00007452     13.59995867      2.71991559      0.00000000     13.60000000      2.72000000      0.16776737      0.08355355      0.21002953
Si              1.36915062     -1.35560970      4.07027178      14       0       1       0   2910.85773629       1       1       1      0.00284383      0.00911889      0.00435796     -0.00970706     -0.00006345     -0.00006468      0.00004231      1.36009105     14.96004368      4.07990320      1.36000000     14.96000000      4.08000000     -0.18470101     -0.18828185      0.12314400
Si             -0.00231395     -5.43413497      5.43295818      14       0       1       0   2910.85773629       1       1       1      0.00128090     -0.00229812      0.00582816     -0.00701429      0.00003168     -0.00007374      0.00005505     -0.00002302     10.88005836      5.43992993      0.00000000     10.88000000      5.44000000      0.09220358     -0.21463843      0.16024437
Si              1.36413211     -4.08326142      6.79553814      14       0       1       0   2910.85773629       1       1       1      0.00068378      0.00410890     -0.00326970     -0.00443203     -0.00004642     -0.00001656      0.00005966      1.36004112     12.23996755      6.79995560      1.36000000     12.24000000      6.80000000     -0.13510993     -0.04820512      0.17364743
Si              2.71238026     -2.72796175      5.44895902      14       0       1       0   2910.85773629       1       1       1      0.00289878     -0.00758993     -0.00793951      0.00891766      0.00005963      0.00004448     -0.00008272      2.71992418     13.59992078      5.44008914      2.72000000     13.60000000      5.44000000      0.17358449      0.12946134     -0.24077572
Si              4.07549631     -1.36750363      6.80734216      14       0       1       0   2910.85773629       1       1       1      0.00187888     -0.00449714     -0.00748571      0.00731305      0.00001309      0.00003584     -0.00005823      4.07995519     14.95992534      6.80007306      4.08000000     14.96000000      6.80000000      0.03809624      0.10433308     -0.16951102
Si              2.72106131     -5.44482896     -8.15805292      14       0       1       1   2910.85773629       1       1       1      0.00040818      0.00105837     -0.00482476      0.00194616     -0.00000587      0.00000841     -0.00000184      2.72001056     10.87995195      8.16001937      2.72000000     10.88000000      8.16000000     -0.01709304      0.02448472     -0.00535522
Si              4.08076217     -4.08789384     -6.79476971      14       0       1       1   2910.85773629       1       1       1      0.00130431      0.00077283     -0.00789442      0.00521026      0.00002132     -0.00000115     -0.00004005      4.08000758     12.23992145      9.52005204      4.08000000     12.24000000      9.52000000      0.06207264     -0.00335728     -0.11657426
Si              0.00865609     -2.71580555     -8.15452985      14       0       1       1   2910.85773629       1       1       1      0.00176103      0.00863633      0.00418745      0.00542977     -0.00003952     -0.00001399     -0.00008075      0.00008613     13.60004174      8.16005443      0.00000000     13.60000000      8.16000000     -0.11504940     -0.04072439     -0.23505780
Si              1.35580713     -1.35267454     -6.80311341      14       0       1       1   2910.85773629       1       1       1      0.00116152     -0.00414305      0.00730780     -0.00310429      0.00009963     -0.00003531      0.00001824      1.35995828     14.96007289      9.51996902      1.36000000     14.96000000      9.52000000      0.29002293     -0.10279587      0.05310267
Si             -0.00202738     -5.44382954     -5.43728304      14       0       1       1   2910.85773629       1       1       1      0.00037841     -0.00202659     -0.00383604      0.00270325      0.00000158     -0.00001299     -0.00002741     -0.00002017     10.87996190     10.88002703      0.00000000     10.88000000     10.88000000      0.00460814     -0.03782648     -0.07978828
Si              1.35567788     -4.08226238     -4.07859550      14       0       1       1   2910.85773629       1       1       1      0.00037215     -0.00430851     -0.00226191      0.00142064      0.00002723      0.00000096      0.00003230      1.35995699     12.23997749     12.24001397      1.36000000     12.24000000     12.24000000      0.07926185      0.00278995      0.09401211
Si              2.72831730     -2.72875475     -5.44027720      14       0       1       1   2910.85773629       1       1       1      0.00209694      0.00829018     -0.00871758     -0.00027501     -0.00005423      0.00007433      0.00000438      2.72008276     13.59991289     10.87999724      2.72000000     13.60000000     10.88000000     -0.15786167      0.21636075      0.01273866
Si              4.08737158     -1.35019334     -4.08406086      14       0       1       1   2910.85773629       1       1       1      0.00240321      0.00735756      0.00977446     -0.00403407     -0.00002804     -0.00006438      0.00005357      4.08007335     14.96009758     12.23995959      4.08000000     14.96000000     12.24000000     -0.08162442     -0.18740910      0.15594302
Si              2.72438016     -5.44363017     -2.71106757      14       0       1       1   2910.85773629       1       1       1      0.00161528      0.00436726     -0.00361191      0.00891179     -0.00002581      0.00003652     -0.00004128      2.72004358     10.87996388     13.60008888      2.72000000     10.88000000     13.60000000     -0.07513939      0.10630171     -0.12016849
Si              4.08664289     -4.08208654     -1.35905863      14       0       1       1   2910.85773629       1       1       1      0.00071463      0.00663855     -0.00208923      0.00095489     -0.00000868     -0.00000539      0.00002704      4.08006610     12.23997924     14.96000937      4.08000000     12.24000000     14.96000000     -0.02526777     -0.01567617      0.07869983
Si             -0.00800499     -2.72194368     -2.71139513      14       0       1       1   2910.85773629       1       1       1      0.00204729     -0.00799249     -0.00195103      0.00858394      0.00002499     -0.00001470     -0.00004186     -0.00007965     13.59998066     13.60008562      0.00000000     13.60000000     13.60000000      0.07274763     -0.04278241     -0.12184517
Si              1.35222872     -1.35423429     -1.36926205      14       0       1       1   2910.85773629       1       1       1      0.00258257     -0.00775373      0.00575099     -0.00922705      0.00003509     -0.00002944      0.00007001      1.35992267     14.96005737     14.95990784      1.36000000     14.96000000     14.96000000      0.10214184     -0.08568321      0.20377896
Si              5.43515352     -0.00679504     -0.00316554      14       0       0       0   2910.85773629       1       1       1      0.00114680     -0.00482916     -0.00677532     -0.00315650      0.00003462      0.00003944      0.00001808      5.43995178     -0.00006761     -0.00003150      5.44000000      0.00000000      0.00000000      0.10078080      0.11480150      0.05262791
Si              6.80297065      1.35520446      1.36736342      14       0       0       0   2910.85773629       1       1       1      0.00124028      0.00296021     -0.00479495      0.00734097     -0.00002087      0.00000117     -0.00004492      6.80002956      1.35995228      1.36007327      6.80000000      1.36000000      1.36000000     -0.06076245      0.00341962     -0.13074493
Si             -8.15872202      2.71859192     -0.00448444      14       1       0       0   2910.85773629       1       1       1      0.00034221      0.00128524     -0.00141731     -0.00446876      0.00001452     -0.00001846      0.00003137      8.16001272      2.71998599     -0.00004462      8.16000000      2.72000000      0.00000000      0.04227454     -0.05373219      0.09130162
Si             -6.79558558      4.08864725      1.35318764      14       1       0       0   2910.85773629       1       1       1      0.00203051      0.00439842      0.00863093     -0.00680973     -0.00003198     -0.00003263      0.00000524      9.52004392      4.08008604      1.35993222      9.52000000      4.08000000      1.36000000     -0.09309538     -0.09497579      0.01525753