260K/data.ice-eq (written by ASE) 

1008 	 atoms 
2  atom types
0.0      15.926892703872642  xlo xhi
0.0       13.79244467921014  ylo yhi
0.0      52.465058318935206  zlo zhi
0.01 0.01 0.01 xy xz yz

Atoms 

     1   2      1.3271083345501884      2.2985109057903688      4.2159421863430078
     2   1      1.7439947510740554      3.0205453847470198      3.9423743822514168
     3   1      1.3271083345501884      2.2985109057903688      5.0516356152803326
     4   2      5.3092296828359462                       0      4.2159421863430078
     5   1      5.3092296828359462                       0      5.0516356152803326
     6   1      4.4754568497882117                       0      3.9423743822514168
     7   2      13.272277862454674         4.5977114338147      4.2159421863430078
     8   1      13.689164278978538      3.8756769548580507      3.9423743822514168
     9   1      13.272277862454674         4.5977114338147      5.0516356152803326
    10   2       2.654614841417974         4.5977114338147     0.46843802070477858
    11   1       2.654614841417974         4.5977114338147      1.3041314496421037
    12   1      2.2377284248941067      3.8756769548580507      0.1948702166131879
    13   2      2.6542166691003759                       0     0.46843802070477858
    14   1      3.4879895021481087                       0      0.1948702166131879
    15   1      2.6542166691003759                       0      1.3041314496421037
    16   2      14.599784369322458      2.2985109057903688     0.46843802070477858
    17   1      14.599784369322458      2.2985109057903688      1.3041314496421037
    18   1      14.182897952798593      3.0205453847470198      0.1948702166131879
    19   2      2.6546148414179735         4.5977114338147      3.2790661449334504
    20   1      2.2377284248941081      5.3238836461751129       3.560128957356318
    21   1      3.4919712253240784      4.5997803005165814       3.560128957356318
    22   2      2.6542166691003763                       0      3.2790661449334504
    23   1      2.2337467017181427      13.068341333551604       3.560128957356318
    24   1      2.2337467017181378      0.7241033456585324       3.560128957356318
    25   2      14.599784369322457      2.2985109057903692      3.2790661449334504
    26   1      14.182897952798594      1.5723386934299559       3.560128957356318
    27   1      15.437140753228563      2.2964420390884879       3.560128957356318
    28   2      1.3271083345501886      2.2985109057903692       7.026570310571679
    29   1     0.48975195064408433      2.2964420390884879      7.3076331229945479
    30   1      1.7439947510740543      1.5723386934299559      7.3076331229945479
    31   2      5.3092296828359453                       0       7.026570310571679
    32   1      5.7296996502181887      13.068341333551604      7.3076331229945479
    33   1      5.7296996502181852      0.7241033456585324      7.3076331229945479
    34   2      13.272277862454674         4.5977114338147       7.026570310571679
    35   1      12.434921478548571      4.5997803005165814      7.3076331229945479
    36   1       13.68916427897854      5.3238836461751129      7.3076331229945479
    37   2      13.272277862454676      9.1947332453954402      4.2159421863430078
    38   1      13.272277862454676      9.1947332453954402      5.0516356152803326
    39   1      13.689164278978541      9.9167677243520913      3.9423743822514168
    40   2      1.3275065068677874      6.8962223396050684      4.2159421863430078
    41   1      1.3275065068677874      6.8962223396050684      5.0516356152803326
    42   1     0.49373367382005401      6.8962223396050684      3.9423743822514168
    43   2      9.2905546864865158      11.493933773419768      4.2159421863430078
    44   1      9.2905546864865158      11.493933773419768      5.0516356152803326
    45   1      9.7074411030103818      10.771899294463118      3.9423743822514168
    46   2       14.59978436932246      11.493933773419768     0.46843802070477858
    47   1      14.182897952798594      10.771899294463118      0.1948702166131879
    48   1       14.59978436932246      11.493933773419768      1.3041314496421037
    49   2      14.599386197004863      6.8962223396050684     0.46843802070477858
    50   1      14.599386197004863      6.8962223396050684      1.3041314496421037
    51   1      15.433159030052595      6.8962223396050684      0.1948702166131879
    52   2      10.618061193354297      9.1947332453954402     0.46843802070477858
    53   1      10.618061193354297      9.1947332453954402      1.3041314496421037
    54   1      10.201174776830433      9.9167677243520913      0.1948702166131879
    55   2       14.59978436932246      11.493933773419768      3.2790661449334504
    56   1      14.182897952798596      12.220105985780181       3.560128957356318
    57   1      15.437140753228567      11.496002640121649       3.560128957356318
    58   2      14.599386197004863      6.8962223396050684      3.2790661449334504
    59   1      14.178916229622624      7.6203256852636025       3.560128957356318
    60   1      14.178916229622624       6.172118993946536       3.560128957356318
    61   2      10.618061193354297      9.1947332453954402      3.2790661449334504
    62   1      10.201174776830435      8.4685610330350265       3.560128957356318
    63   1      11.455417577260404      9.1926643786935589       3.560128957356318
    64   2      13.272277862454676      9.1947332453954402       7.026570310571679
    65   1      12.434921478548571      9.1926643786935589      7.3076331229945479
    66   1       13.68916427897854      8.4685610330350265      7.3076331229945479
    67   2      1.3275065068677865      6.8962223396050684       7.026570310571679
    68   1      1.7479764742500252       6.172118993946536      7.3076331229945479
    69   1      1.7479764742500252      7.6203256852636025      7.3076331229945479
    70   2      9.2905546864865158      11.493933773419768       7.026570310571679
    71   1      8.4531983025804092      11.496002640121649      7.3076331229945479
    72   1      9.7074411030103818      12.220105985780181      7.3076331229945479
    73   2      9.2905546864865141      2.2985109057903688      4.2159421863430078
    74   1        9.70744110301038      3.0205453847470198      3.9423743822514168
    75   1      9.2905546864865141      2.2985109057903688      5.0516356152803326
    76   2      13.272676034772271                       0      4.2159421863430078
    77   1      12.438903201724539                       0      3.9423743822514168
    78   1      13.272676034772271                       0      5.0516356152803326
    79   2      5.3088315105183517         4.5977114338147      4.2159421863430078
    80   1      5.3088315105183517         4.5977114338147      5.0516356152803326
    81   1      5.7257179270422176      3.8756769548580507      3.9423743822514168
    82   2      10.618061193354297         4.5977114338147     0.46843802070477858
    83   1      10.201174776830429      3.8756769548580507      0.1948702166131879
    84   1      10.618061193354297         4.5977114338147      1.3041314496421037
    85   2      10.617663021036702                       0     0.46843802070477858
    86   1      11.451435854084433                       0      0.1948702166131879
    87   1      10.617663021036702                       0      1.3041314496421037
    88   2      6.6363380173861355      2.2985109057903688     0.46843802070477858
    89   1      6.6363380173861355      2.2985109057903688      1.3041314496421037
    90   1      6.2194516008622704      3.0205453847470198      0.1948702166131879
    91   2      10.618061193354297         4.5977114338147      3.2790661449334504
    92   1      10.201174776830429      5.3238836461751129       3.560128957356318
    93   1      11.455417577260402      4.5997803005165814       3.560128957356318
    94   2      10.617663021036702                       0      3.2790661449334504
    95   1      10.197193053654464      13.068341333551604       3.560128957356318
    96   1      10.197193053654463      0.7241033456585324       3.560128957356318
    97   2      6.6363380173861355      2.2985109057903692      3.2790661449334504
    98   1      7.4736944012922404      2.2964420390884879       3.560128957356318
    99   1      6.2194516008622704      1.5723386934299559       3.560128957356318
   100   2      9.2905546864865141      2.2985109057903692       7.026570310571679
   101   1      8.4531983025804056      2.2964420390884879      7.3076331229945479
   102   1      9.7074411030103782      1.5723386934299559      7.3076331229945479
   103   2      13.272676034772271                       0       7.026570310571679
   104   1      13.693146002154513      13.068341333551604      7.3076331229945479
   105   1       13.69314600215451      0.7241033456585324      7.3076331229945479
   106   2      5.3088315105183526         4.5977114338147       7.026570310571679
   107   1      5.7257179270422176      5.3238836461751129      7.3076331229945479
   108   1      4.4714751266122459      4.5997803005165814      7.3076331229945479
   109   2      5.3088315105183526      9.1947332453954402      4.2159421863430078
   110   1      5.7257179270422194      9.9167677243520913      3.9423743822514168
   111   1      5.3088315105183526      9.1947332453954402      5.0516356152803326
   112   2      9.2909528588041077      6.8962223396050684      4.2159421863430078
   113   1      8.4571800257563758      6.8962223396050684      3.9423743822514168
   114   1      9.2909528588041077      6.8962223396050684      5.0516356152803326
   115   2      1.3271083345501906      11.493933773419768      4.2159421863430078
   116   1      1.7439947510740577      10.771899294463118      3.9423743822514168
   117   1      1.3271083345501906      11.493933773419768      5.0516356152803326
   118   2      6.6363380173861382      11.493933773419768     0.46843802070477858
   119   1      6.6363380173861382      11.493933773419768      1.3041314496421037
   120   1      6.2194516008622722      10.771899294463118      0.1948702166131879
   121   2      6.6359398450685392      6.8962223396050684     0.46843802070477858
   122   1      6.6359398450685392      6.8962223396050684      1.3041314496421037
   123   1      7.4697126781162728      6.8962223396050684      0.1948702166131879
   124   2      2.6546148414179753      9.1947332453954402     0.46843802070477858
   125   1      2.2377284248941089      9.9167677243520913      0.1948702166131879
   126   1      2.6546148414179753      9.1947332453954402      1.3041314496421037
   127   2      6.6363380173861373      11.493933773419768      3.2790661449334504
   128   1      6.2194516008622731      12.220105985780181       3.560128957356318
   129   1      7.4736944012922431      11.496002640121649       3.560128957356318
   130   2      6.6359398450685392      6.8962223396050684      3.2790661449334504
   131   1      6.2154698776863029       6.172118993946536       3.560128957356318
   132   1      6.2154698776863029      7.6203256852636025       3.560128957356318
   133   2      2.6546148414179749      9.1947332453954402      3.2790661449334504
   134   1      2.2377284248941089      8.4685610330350265       3.560128957356318
   135   1      3.4919712253240793      9.1926643786935589       3.560128957356318
   136   2      5.3088315105183534      9.1947332453954402       7.026570310571679
   137   1      4.4714751266122468      9.1926643786935589      7.3076331229945479
   138   1      5.7257179270422185      8.4685610330350265      7.3076331229945479
   139   2      9.2909528588041059      6.8962223396050684       7.026570310571679
   140   1      9.7114228261863484      7.6203256852636025      7.3076331229945479
   141   1      9.7114228261863484       6.172118993946536      7.3076331229945479
   142   2      1.3271083345501911      11.493933773419768       7.026570310571679
   143   1      1.7439947510740581      12.220105985780181      7.3076331229945479
   144   1     0.48975195064408733      11.496002640121649      7.3076331229945479
   145   2      1.3271083345501884      2.2985109057903688      11.710950517619466
   146   1      1.7439947510740554      3.0205453847470198      11.437382713527875
   147   1      1.3271083345501884      2.2985109057903688      12.546643946556792
   148   2      5.3092296828359462                       0      11.710950517619466
   149   1      5.3092296828359462                       0      12.546643946556792
   150   1      4.4754568497882117                       0      11.437382713527875
   151   2      13.272277862454674         4.5977114338147      11.710950517619466
   152   1      13.689164278978538      3.8756769548580507      11.437382713527875
   153   1      13.272277862454674         4.5977114338147      12.546643946556792
   154   2       2.654614841417974         4.5977114338147      7.9634463519812373
   155   1      2.2377284248941067      3.8756769548580507      7.6898785478896459
   156   1       2.654614841417974         4.5977114338147      8.7991397809185621
   157   2      2.6542166691003759                       0      7.9634463519812373
   158   1      2.6542166691003759                       0      8.7991397809185621
   159   1      3.4879895021481087                       0      7.6898785478896459
   160   2      14.599784369322458      2.2985109057903688      7.9634463519812373
   161   1      14.182897952798593      3.0205453847470198      7.6898785478896459
   162   1      14.599784369322458      2.2985109057903688      8.7991397809185621
   163   2      2.6546148414179735         4.5977114338147      10.774074476209908
   164   1      2.2377284248941081      5.3238836461751129      11.055137288632777
   165   1      3.4919712253240784      4.5997803005165814      11.055137288632777
   166   2      2.6542166691003763                       0      10.774074476209908
   167   1      2.2337467017181427      13.068341333551604      11.055137288632777
   168   1      2.2337467017181378      0.7241033456585324      11.055137288632777
   169   2      14.599784369322457      2.2985109057903692      10.774074476209908
   170   1      14.182897952798594      1.5723386934299559      11.055137288632777
   171   1      15.437140753228563      2.2964420390884879      11.055137288632777
   172   2      1.3271083345501886      2.2985109057903692      14.521578641848139
   173   1     0.48975195064408433      2.2964420390884879      14.802641454271008
   174   1      1.7439947510740543      1.5723386934299559      14.802641454271008
   175   2      5.3092296828359453                       0      14.521578641848139
   176   1      5.7296996502181887      13.068341333551604      14.802641454271008
   177   1      5.7296996502181852      0.7241033456585324      14.802641454271008
   178   2      13.272277862454674         4.5977114338147      14.521578641848139
   179   1       13.68916427897854      5.3238836461751129      14.802641454271008
   180   1      12.434921478548571      4.5997803005165814      14.802641454271008
   181   2      13.272277862454676      9.1947332453954402      11.710950517619466
   182   1      13.272277862454676      9.1947332453954402      12.546643946556792
   183   1      13.689164278978541      9.9167677243520913      11.437382713527875
   184   2      1.3275065068677874      6.8962223396050684      11.710950517619466
   185   1      1.3275065068677874      6.8962223396050684      12.546643946556792
   186   1     0.49373367382005401      6.8962223396050684      11.437382713527875
   187   2      9.2905546864865158      11.493933773419768      11.710950517619466
   188   1      9.7074411030103818      10.771899294463118      11.437382713527875
   189   1      9.2905546864865158      11.493933773419768      12.546643946556792
   190   2       14.59978436932246      11.493933773419768      7.9634463519812373
   191   1      14.182897952798594      10.771899294463118      7.6898785478896459
   192   1       14.59978436932246      11.493933773419768      8.7991397809185621
   193   2      14.599386197004863      6.8962223396050684      7.9634463519812373
   194   1      15.433159030052595      6.8962223396050684      7.6898785478896459
   195   1      14.599386197004863      6.8962223396050684      8.7991397809185621
   196   2      10.618061193354297      9.1947332453954402      7.9634463519812373
   197   1      10.618061193354297      9.1947332453954402      8.7991397809185621
   198   1      10.201174776830433      9.9167677243520913      7.6898785478896459
   199   2       14.59978436932246      11.493933773419768      10.774074476209908
   200   1      14.182897952798596      12.220105985780181      11.055137288632777
   201   1      15.437140753228567      11.496002640121649      11.055137288632777
   202   2      14.599386197004863      6.8962223396050684      10.774074476209908
   203   1      14.178916229622624      7.6203256852636025      11.055137288632777
   204   1      14.178916229622624       6.172118993946536      11.055137288632777
   205   2      10.618061193354297      9.1947332453954402      10.774074476209908
   206   1      10.201174776830435      8.4685610330350265      11.055137288632777
   207   1      11.455417577260404      9.1926643786935589      11.055137288632777
   208   2      13.272277862454676      9.1947332453954402      14.521578641848139
   209   1       13.68916427897854      8.4685610330350265      14.802641454271008
   210   1      12.434921478548571      9.1926643786935589      14.802641454271008
   211   2      1.3275065068677865      6.8962223396050684      14.521578641848139
   212   1      1.7479764742500252      7.6203256852636025      14.802641454271008
   213   1      1.7479764742500252       6.172118993946536      14.802641454271008
   214   2      9.2905546864865158      11.493933773419768      14.521578641848139
   215   1      8.4531983025804092      11.496002640121649      14.802641454271008
   216   1      9.7074411030103818      12.220105985780181      14.802641454271008
   217   2      9.2905546864865141      2.2985109057903688      11.710950517619466
   218   1        9.70744110301038      3.0205453847470198      11.437382713527875
   219   1      9.2905546864865141      2.2985109057903688      12.546643946556792
   220   2      13.272676034772271                       0      11.710950517619466
   221   1      12.438903201724539                       0      11.437382713527875
   222   1      13.272676034772271                       0      12.546643946556792
   223   2      5.3088315105183517         4.5977114338147      11.710950517619466
   224   1      5.7257179270422176      3.8756769548580507      11.437382713527875
   225   1      5.3088315105183517         4.5977114338147      12.546643946556792
   226   2      10.618061193354297         4.5977114338147      7.9634463519812373
   227   1      10.201174776830429      3.8756769548580507      7.6898785478896459
   228   1      10.618061193354297         4.5977114338147      8.7991397809185621
   229   2      10.617663021036702                       0      7.9634463519812373
   230   1      10.617663021036702                       0      8.7991397809185621
   231   1      11.451435854084433                       0      7.6898785478896459
   232   2      6.6363380173861355      2.2985109057903688      7.9634463519812373
   233   1      6.6363380173861355      2.2985109057903688      8.7991397809185621
   234   1      6.2194516008622704      3.0205453847470198      7.6898785478896459
   235   2      10.618061193354297         4.5977114338147      10.774074476209908
   236   1      10.201174776830429      5.3238836461751129      11.055137288632777
   237   1      11.455417577260402      4.5997803005165814      11.055137288632777
   238   2      10.617663021036702                       0      10.774074476209908
   239   1      10.197193053654464      13.068341333551604      11.055137288632777
   240   1      10.197193053654463      0.7241033456585324      11.055137288632777
   241   2      6.6363380173861355      2.2985109057903692      10.774074476209908
   242   1      7.4736944012922404      2.2964420390884879      11.055137288632777
   243   1      6.2194516008622704      1.5723386934299559      11.055137288632777
   244   2      9.2905546864865141      2.2985109057903692      14.521578641848139
   245   1      8.4531983025804056      2.2964420390884879      14.802641454271008
   246   1      9.7074411030103782      1.5723386934299559      14.802641454271008
   247   2      13.272676034772271                       0      14.521578641848139
   248   1      13.693146002154513      13.068341333551604      14.802641454271008
   249   1       13.69314600215451      0.7241033456585324      14.802641454271008
   250   2      5.3088315105183526         4.5977114338147      14.521578641848139
   251   1      4.4714751266122459      4.5997803005165814      14.802641454271008
   252   1      5.7257179270422176      5.3238836461751129      14.802641454271008
   253   2      5.3088315105183526      9.1947332453954402      11.710950517619466
   254   1      5.7257179270422194      9.9167677243520913      11.437382713527875
   255   1      5.3088315105183526      9.1947332453954402      12.546643946556792
   256   2      9.2909528588041077      6.8962223396050684      11.710950517619466
   257   1      8.4571800257563758      6.8962223396050684      11.437382713527875
   258   1      9.2909528588041077      6.8962223396050684      12.546643946556792
   259   2      1.3271083345501906      11.493933773419768      11.710950517619466
   260   1      1.7439947510740577      10.771899294463118      11.437382713527875
   261   1      1.3271083345501906      11.493933773419768      12.546643946556792
   262   2      6.6363380173861382      11.493933773419768      7.9634463519812373
   263   1      6.6363380173861382      11.493933773419768      8.7991397809185621
   264   1      6.2194516008622722      10.771899294463118      7.6898785478896459
   265   2      6.6359398450685392      6.8962223396050684      7.9634463519812373
   266   1      6.6359398450685392      6.8962223396050684      8.7991397809185621
   267   1      7.4697126781162728      6.8962223396050684      7.6898785478896459
   268   2      2.6546148414179753      9.1947332453954402      7.9634463519812373
   269   1      2.6546148414179753      9.1947332453954402      8.7991397809185621
   270   1      2.2377284248941089      9.9167677243520913      7.6898785478896459
   271   2      6.6363380173861373      11.493933773419768      10.774074476209908
   272   1      7.4736944012922431      11.496002640121649      11.055137288632777
   273   1      6.2194516008622731      12.220105985780181      11.055137288632777
   274   2      6.6359398450685392      6.8962223396050684      10.774074476209908
   275   1      6.2154698776863029      7.6203256852636025      11.055137288632777
   276   1      6.2154698776863029       6.172118993946536      11.055137288632777
   277   2      2.6546148414179749      9.1947332453954402      10.774074476209908
   278   1      3.4919712253240793      9.1926643786935589      11.055137288632777
   279   1      2.2377284248941089      8.4685610330350265      11.055137288632777
   280   2      5.3088315105183534      9.1947332453954402      14.521578641848139
   281   1      5.7257179270422185      8.4685610330350265      14.802641454271008
   282   1      4.4714751266122468      9.1926643786935589      14.802641454271008
   283   2      9.2909528588041059      6.8962223396050684      14.521578641848139
   284   1      9.7114228261863484       6.172118993946536      14.802641454271008
   285   1      9.7114228261863484      7.6203256852636025      14.802641454271008
   286   2      1.3271083345501911      11.493933773419768      14.521578641848139
   287   1      1.7439947510740581      12.220105985780181      14.802641454271008
   288   1     0.48975195064408733      11.496002640121649      14.802641454271008
   289   2      1.3271083345501884      2.2985109057903688      19.205958848895921
   290   1      1.7439947510740554      3.0205453847470198      18.932391044804334
   291   1      1.3271083345501884      2.2985109057903688      20.041652277833251
   292   2      5.3092296828359462                       0      19.205958848895921
   293   1      5.3092296828359462                       0      20.041652277833251
   294   1      4.4754568497882117                       0      18.932391044804334
   295   2      13.272277862454674         4.5977114338147      19.205958848895921
   296   1      13.689164278978538      3.8756769548580507      18.932391044804334
   297   1      13.272277862454674         4.5977114338147      20.041652277833251
   298   2       2.654614841417974         4.5977114338147      15.458454683257695
   299   1       2.654614841417974         4.5977114338147      16.294148112195021
   300   1      2.2377284248941067      3.8756769548580507      15.184886879166104
   301   2      2.6542166691003759                       0      15.458454683257695
   302   1      3.4879895021481087                       0      15.184886879166104
   303   1      2.6542166691003759                       0      16.294148112195021
   304   2      14.599784369322458      2.2985109057903688      15.458454683257695
   305   1      14.599784369322458      2.2985109057903688      16.294148112195021
   306   1      14.182897952798593      3.0205453847470198      15.184886879166104
   307   2      2.6546148414179735         4.5977114338147      18.269082807486367
   308   1      2.2377284248941081      5.3238836461751129      18.550145619909234
   309   1      3.4919712253240784      4.5997803005165814      18.550145619909234
   310   2      2.6542166691003763                       0      18.269082807486367
   311   1      2.2337467017181427      13.068341333551604      18.550145619909234
   312   1      2.2337467017181378      0.7241033456585324      18.550145619909234
   313   2      14.599784369322457      2.2985109057903692      18.269082807486367
   314   1      15.437140753228563      2.2964420390884879      18.550145619909234
   315   1      14.182897952798594      1.5723386934299559      18.550145619909234
   316   2      1.3271083345501886      2.2985109057903692      22.016586973124596
   317   1      1.7439947510740543      1.5723386934299559      22.297649785547463
   318   1     0.48975195064408433      2.2964420390884879      22.297649785547463
   319   2      5.3092296828359453                       0      22.016586973124596
   320   1      5.7296996502181887      13.068341333551604      22.297649785547463
   321   1      5.7296996502181852      0.7241033456585324      22.297649785547463
   322   2      13.272277862454674         4.5977114338147      22.016586973124596
   323   1      12.434921478548571      4.5997803005165814      22.297649785547463
   324   1       13.68916427897854      5.3238836461751129      22.297649785547463
   325   2      13.272277862454676      9.1947332453954402      19.205958848895921
   326   1      13.272277862454676      9.1947332453954402      20.041652277833251
   327   1      13.689164278978541      9.9167677243520913      18.932391044804334
   328   2      1.3275065068677874      6.8962223396050684      19.205958848895921
   329   1     0.49373367382005401      6.8962223396050684      18.932391044804334
   330   1      1.3275065068677874      6.8962223396050684      20.041652277833251
   331   2      9.2905546864865158      11.493933773419768      19.205958848895921
   332   1      9.7074411030103818      10.771899294463118      18.932391044804334
   333   1      9.2905546864865158      11.493933773419768      20.041652277833251
   334   2       14.59978436932246      11.493933773419768      15.458454683257695
   335   1      14.182897952798594      10.771899294463118      15.184886879166104
   336   1       14.59978436932246      11.493933773419768      16.294148112195021
   337   2      14.599386197004863      6.8962223396050684      15.458454683257695
   338   1      15.433159030052595      6.8962223396050684      15.184886879166104
   339   1      14.599386197004863      6.8962223396050684      16.294148112195021
   340   2      10.618061193354297      9.1947332453954402      15.458454683257695
   341   1      10.618061193354297      9.1947332453954402      16.294148112195021
   342   1      10.201174776830433      9.9167677243520913      15.184886879166104
   343   2       14.59978436932246      11.493933773419768      18.269082807486367
   344   1      15.437140753228567      11.496002640121649      18.550145619909234
   345   1      14.182897952798596      12.220105985780181      18.550145619909234
   346   2      14.599386197004863      6.8962223396050684      18.269082807486367
   347   1      14.178916229622624       6.172118993946536      18.550145619909234
   348   1      14.178916229622624      7.6203256852636025      18.550145619909234
   349   2      10.618061193354297      9.1947332453954402      18.269082807486367
   350   1      11.455417577260404      9.1926643786935589      18.550145619909234
   351   1      10.201174776830435      8.4685610330350265      18.550145619909234
   352   2      13.272277862454676      9.1947332453954402      22.016586973124596
   353   1      12.434921478548571      9.1926643786935589      22.297649785547463
   354   1       13.68916427897854      8.4685610330350265      22.297649785547463
   355   2      1.3275065068677865      6.8962223396050684      22.016586973124596
   356   1      1.7479764742500252       6.172118993946536      22.297649785547463
   357   1      1.7479764742500252      7.6203256852636025      22.297649785547463
   358   2      9.2905546864865158      11.493933773419768      22.016586973124596