1008
# CELL(abcABC):   15.92680    13.79240    52.46500    90.00000    90.00000    90.00000  Step:        5000  Bead:       0 positions{angstrom}  cell{angstrom}
       O  1.32711e+00  2.29851e+00  4.21594e+00
       H  1.74399e+00  3.02055e+00  3.94237e+00
       H  1.32711e+00  2.29851e+00  5.05164e+00
       O  5.30923e+00  0.00000e+00  4.21594e+00
       H  5.30923e+00  0.00000e+00  5.05164e+00
       H  4.47546e+00  0.00000e+00  3.94237e+00
       O  1.32723e+01  4.59771e+00  4.21594e+00
       H  1.36892e+01  3.87568e+00  3.94237e+00
       H  1.32723e+01  4.59771e+00  5.05164e+00
       O  2.65461e+00  4.59771e+00  4.68438e-01
       H  2.65461e+00  4.59771e+00  1.30413e+00
       H  2.23773e+00  3.87568e+00  1.94870e-01
       O  2.65422e+00  0.00000e+00  4.68438e-01
       H  3.48799e+00  0.00000e+00  1.94870e-01
       H  2.65422e+00  0.00000e+00  1.30413e+00
       O  1.45998e+01  2.29851e+00  4.68438e-01
       H  1.45998e+01  2.29851e+00  1.30413e+00
       H  1.41829e+01  3.02055e+00  1.94870e-01
       O  2.65461e+00  4.59771e+00  3.27907e+00
       H  2.23773e+00  5.32388e+00  3.56013e+00
       H  3.49197e+00  4.59978e+00  3.56013e+00
       O  2.65422e+00  0.00000e+00  3.27907e+00
       H  2.23375e+00  1.30683e+01  3.56013e+00
       H  2.23375e+00  7.24103e-01  3.56013e+00
       O  1.45998e+01  2.29851e+00  3.27907e+00
       H  1.41829e+01  1.57234e+00  3.56013e+00
       H  1.54371e+01  2.29644e+00  3.56013e+00
       O  1.32711e+00  2.29851e+00  7.02657e+00
       H  4.89752e-01  2.29644e+00  7.30763e+00
       H  1.74399e+00  1.57234e+00  7.30763e+00
       O  5.30923e+00  0.00000e+00  7.02657e+00
       H  5.72970e+00  1.30683e+01  7.30763e+00
       H  5.72970e+00  7.24103e-01  7.30763e+00
       O  1.32723e+01  4.59771e+00  7.02657e+00
       H  1.24349e+01  4.59978e+00  7.30763e+00
       H  1.36892e+01  5.32388e+00  7.30763e+00
       O  1.32723e+01  9.19473e+00  4.21594e+00
       H  1.32723e+01  9.19473e+00  5.05164e+00
       H  1.36892e+01  9.91677e+00  3.94237e+00
       O  1.32751e+00  6.89622e+00  4.21594e+00
       H  1.32751e+00  6.89622e+00  5.05164e+00
       H  4.93734e-01  6.89622e+00  3.94237e+00
       O  9.29055e+00  1.14939e+01  4.21594e+00
       H  9.29055e+00  1.14939e+01  5.05164e+00
       H  9.70744e+00  1.07719e+01  3.94237e+00
       O  1.45998e+01  1.14939e+01  4.68438e-01
       H  1.41829e+01  1.07719e+01  1.94870e-01
       H  1.45998e+01  1.14939e+01  1.30413e+00
       O  1.45994e+01  6.89622e+00  4.68438e-01
       H  1.45994e+01  6.89622e+00  1.30413e+00
       H  1.54332e+01  6.89622e+00  1.94870e-01
       O  1.06181e+01  9.19473e+00  4.68438e-01
       H  1.06181e+01  9.19473e+00  1.30413e+00
       H  1.02012e+01  9.91677e+00  1.94870e-01
       O  1.45998e+01  1.14939e+01  3.27907e+00
       H  1.41829e+01  1.22201e+01  3.56013e+00
       H  1.54371e+01  1.14960e+01  3.56013e+00
       O  1.45994e+01  6.89622e+00  3.27907e+00
       H  1.41789e+01  7.62033e+00  3.56013e+00
       H  1.41789e+01  6.17212e+00  3.56013e+00
       O  1.06181e+01  9.19473e+00  3.27907e+00
       H  1.02012e+01  8.46856e+00  3.56013e+00
       H  1.14554e+01  9.19266e+00  3.56013e+00
       O  1.32723e+01  9.19473e+00  7.02657e+00
       H  1.24349e+01  9.19266e+00  7.30763e+00
       H  1.36892e+01  8.46856e+00  7.30763e+00
       O  1.32751e+00  6.89622e+00  7.02657e+00
       H  1.74798e+00  6.17212e+00  7.30763e+00
       H  1.74798e+00  7.62033e+00  7.30763e+00
       O  9.29055e+00  1.14939e+01  7.02657e+00
       H  8.45320e+00  1.14960e+01  7.30763e+00
       H  9.70744e+00  1.22201e+01  7.30763e+00
       O  9.29055e+00  2.29851e+00  4.21594e+00
       H  9.70744e+00  3.02055e+00  3.94237e+00
       H  9.29055e+00  2.29851e+00  5.05164e+00
       O  1.32727e+01  0.00000e+00  4.21594e+00
       H  1.24389e+01  0.00000e+00  3.94237e+00
       H  1.32727e+01  0.00000e+00  5.05164e+00
       O  5.30883e+00  4.59771e+00  4.21594e+00
       H  5.30883e+00  4.59771e+00  5.05164e+00
       H  5.72572e+00  3.87568e+00  3.94237e+00
       O  1.06181e+01  4.59771e+00  4.68438e-01
       H  1.02012e+01  3.87568e+00  1.94870e-01
       H  1.06181e+01  4.59771e+00  1.30413e+00
       O  1.06177e+01  0.00000e+00  4.68438e-01
       H  1.14514e+01  0.00000e+00  1.94870e-01
       H  1.06177e+01  0.00000e+00  1.30413e+00
       O  6.63634e+00  2.29851e+00  4.68438e-01
       H  6.63634e+00  2.29851e+00  1.30413e+00
       H  6.21945e+00  3.02055e+00  1.94870e-01
       O  1.06181e+01  4.59771e+00  3.27907e+00
       H  1.02012e+01  5.32388e+00  3.56013e+00
       H  1.14554e+01  4.59978e+00  3.56013e+00
       O  1.06177e+01  0.00000e+00  3.27907e+00
       H  1.01972e+01  1.30683e+01  3.56013e+00
       H  1.01972e+01  7.24103e-01  3.56013e+00
       O  6.63634e+00  2.29851e+00  3.27907e+00
       H  7.47369e+00  2.29644e+00  3.56013e+00
       H  6.21945e+00  1.57234e+00  3.56013e+00
       O  9.29055e+00  2.29851e+00  7.02657e+00
       H  8.45320e+00  2.29644e+00  7.30763e+00
       H  9.70744e+00  1.57234e+00  7.30763e+00
       O  1.32727e+01  0.00000e+00  7.02657e+00
       H  1.36931e+01  1.30683e+01  7.30763e+00
       H  1.36931e+01  7.24103e-01  7.30763e+00
       O  5.30883e+00  4.59771e+00  7.02657e+00
       H  5.72572e+00  5.32388e+00  7.30763e+00
       H  4.47148e+00  4.59978e+00  7.30763e+00
       O  5.30883e+00  9.19473e+00  4.21594e+00
       H  5.72572e+00  9.91677e+00  3.94237e+00
       H  5.30883e+00  9.19473e+00  5.05164e+00
       O  9.29095e+00  6.89622e+00  4.21594e+00
       H  8.45718e+00  6.89622e+00  3.94237e+00
       H  9.29095e+00  6.89622e+00  5.05164e+00
       O  1.32711e+00  1.14939e+01  4.21594e+00
       H  1.74399e+00  1.07719e+01  3.94237e+00
       H  1.32711e+00  1.14939e+01  5.05164e+00
       O  6.63634e+00  1.14939e+01  4.68438e-01
       H  6.63634e+00  1.14939e+01  1.30413e+00
       H  6.21945e+00  1.07719e+01  1.94870e-01
       O  6.63594e+00  6.89622e+00  4.68438e-01
       H  6.63594e+00  6.89622e+00  1.30413e+00
       H  7.46971e+00  6.89622e+00  1.94870e-01
       O  2.65461e+00  9.19473e+00  4.68438e-01
       H  2.23773e+00  9.91677e+00  1.94870e-01
       H  2.65461e+00  9.19473e+00  1.30413e+00
       O  6.63634e+00  1.14939e+01  3.27907e+00
       H  6.21945e+00  1.22201e+01  3.56013e+00
       H  7.47369e+00  1.14960e+01  3.56013e+00
       O  6.63594e+00  6.89622e+00  3.27907e+00
       H  6.21547e+00  6.17212e+00  3.56013e+00
       H  6.21547e+00  7.62033e+00  3.56013e+00
       O  2.65461e+00  9.19473e+00  3.27907e+00
       H  2.23773e+00  8.46856e+00  3.56013e+00
       H  3.49197e+00  9.19266e+00  3.56013e+00
       O  5.30883e+00  9.19473e+00  7.02657e+00
       H  4.47148e+00  9.19266e+00  7.30763e+00
       H  5.72572e+00  8.46856e+00  7.30763e+00
       O  9.29095e+00  6.89622e+00  7.02657e+00
       H  9.71142e+00  7.62033e+00  7.30763e+00
       H  9.71142e+00  6.17212e+00  7.30763e+00
       O  1.32711e+00  1.14939e+01  7.02657e+00
       H  1.74399e+00  1.22201e+01  7.30763e+00
       H  4.89752e-01  1.14960e+01  7.30763e+00
       O  1.32711e+00  2.29851e+00  1.17110e+01
       H  1.74399e+00  3.02055e+00  1.14374e+01
       H  1.32711e+00  2.29851e+00  1.25466e+01
       O  5.30923e+00  0.00000e+00  1.17110e+01
       H  5.30923e+00  0.00000e+00  1.25466e+01
       H  4.47546e+00  0.00000e+00  1.14374e+01
       O  1.32723e+01  4.59771e+00  1.17110e+01
       H  1.36892e+01  3.87568e+00  1.14374e+01
       H  1.32723e+01  4.59771e+00  1.25466e+01
       O  2.65461e+00  4.59771e+00  7.96345e+00
       H  2.23773e+00  3.87568e+00  7.68988e+00
       H  2.65461e+00  4.59771e+00  8.79914e+00
       O  2.65422e+00  0.00000e+00  7.96345e+00
       H  2.65422e+00  0.00000e+00  8.79914e+00
       H  3.48799e+00  0.00000e+00  7.68988e+00
       O  1.45998e+01  2.29851e+00  7.96345e+00
       H  1.41829e+01  3.02055e+00  7.68988e+00
       H  1.45998e+01  2.29851e+00  8.79914e+00
       O  2.65461e+00  4.59771e+00  1.07741e+01
       H  2.23773e+00  5.32388e+00  1.10551e+01
       H  3.49197e+00  4.59978e+00  1.10551e+01
       O  2.65422e+00  0.00000e+00  1.07741e+01
       H  2.23375e+00  1.30683e+01  1.10551e+01
       H  2.23375e+00  7.24103e-01  1.10551e+01
       O  1.45998e+01  2.29851e+00  1.07741e+01
       H  1.41829e+01  1.57234e+00  1.10551e+01
       H  1.54371e+01  2.29644e+00  1.10551e+01
       O  1.32711e+00  2.29851e+00  1.45216e+01
       H  4.89752e-01  2.29644e+00  1.48026e+01
       H  1.74399e+00  1.57234e+00  1.48026e+01
       O  5.30923e+00  0.00000e+00  1.45216e+01
       H  5.72970e+00  1.30683e+01  1.48026e+01
       H  5.72970e+00  7.24103e-01  1.48026e+01
       O  1.32723e+01  4.59771e+00  1.45216e+01
       H  1.36892e+01  5.32388e+00  1.48026e+01
       H  1.24349e+01  4.59978e+00  1.48026e+01
       O  1.32723e+01  9.19473e+00  1.17110e+01
       H  1.32723e+01  9.19473e+00  1.25466e+01
       H  1.36892e+01  9.91677e+00  1.14374e+01
       O  1.32751e+00  6.89622e+00  1.17110e+01
       H  1.32751e+00  6.89622e+00  1.25466e+01
       H  4.93734e-01  6.89622e+00  1.14374e+01
       O  9.29055e+00  1.14939e+01  1.17110e+01
       H  9.70744e+00  1.07719e+01  1.14374e+01
       H  9.29055e+00  1.14939e+01  1.25466e+01
       O  1.45998e+01  1.14939e+01  7.96345e+00
       H  1.41829e+01  1.07719e+01  7.68988e+00
       H  1.45998e+01  1.14939e+01  8.79914e+00
       O  1.45994e+01  6.89622e+00  7.96345e+00
       H  1.54332e+01  6.89622e+00  7.68988e+00
       H  1.45994e+01  6.89622e+00  8.79914e+00
       O  1.06181e+01  9.19473e+00  7.96345e+00
       H  1.06181e+01  9.19473e+00  8.79914e+00
       H  1.02012e+01  9.91677e+00  7.68988e+00
       O  1.45998e+01  1.14939e+01  1.07741e+01
       H  1.41829e+01  1.22201e+01  1.10551e+01
       H  1.54371e+01  1.14960e+01  1.10551e+01
       O  1.45994e+01  6.89622e+00  1.07741e+01
       H  1.41789e+01  7.62033e+00  1.10551e+01
       H  1.41789e+01  6.17212e+00  1.10551e+01
       O  1.06181e+01  9.19473e+00  1.07741e+01
       H  1.02012e+01  8.46856e+00  1.10551e+01
       H  1.14554e+01  9.19266e+00  1.10551e+01
       O  1.32723e+01  9.19473e+00  1.45216e+01
       H  1.36892e+01  8.46856e+00  1.48026e+01
       H  1.24349e+01  9.19266e+00  1.48026e+01
       O  1.32751e+00  6.89622e+00  1.45216e+01
       H  1.74798e+00  7.62033e+00  1.48026e+01
       H  1.74798e+00  6.17212e+00  1.48026e+01
       O  9.29055e+00  1.14939e+01  1.45216e+01
       H  8.45320e+00  1.14960e+01  1.48026e+01
       H  9.70744e+00  1.22201e+01  1.48026e+01
       O  9.29055e+00  2.29851e+00  1.17110e+01
       H  9.70744e+00  3.02055e+00  1.14374e+01
       H  9.29055e+00  2.29851e+00  1.25466e+01
       O  1.32727e+01  0.00000e+00  1.17110e+01
       H  1.24389e+01  0.00000e+00  1.14374e+01
       H  1.32727e+01  0.00000e+00  1.25466e+01
       O  5.30883e+00  4.59771e+00  1.17110e+01
       H  5.72572e+00  3.87568e+00  1.14374e+01
       H  5.30883e+00  4.59771e+00  1.25466e+01
       O  1.06181e+01  4.59771e+00  7.96345e+00
       H  1.02012e+01  3.87568e+00  7.68988e+00
       H  1.06181e+01  4.59771e+00  8.79914e+00
       O  1.06177e+01  0.00000e+00  7.96345e+00
       H  1.06177e+01  0.00000e+00  8.79914e+00
       H  1.14514e+01  0.00000e+00  7.68988e+00
       O  6.63634e+00  2.29851e+00  7.96345e+00
       H  6.63634e+00  2.29851e+00  8.79914e+00
       H  6.21945e+00  3.02055e+00  7.68988e+00
       O  1.06181e+01  4.59771e+00  1.07741e+01
       H  1.02012e+01  5.32388e+00  1.10551e+01
       H  1.14554e+01  4.59978e+00  1.10551e+01
       O  1.06177e+01  0.00000e+00  1.07741e+01
       H  1.01972e+01  1.30683e+01  1.10551e+01
       H  1.01972e+01  7.24103e-01  1.10551e+01
       O  6.63634e+00  2.29851e+00  1.07741e+01
       H  7.47369e+00  2.29644e+00  1.10551e+01
       H  6.21945e+00  1.57234e+00  1.10551e+01
       O  9.29055e+00  2.29851e+00  1.45216e+01
       H  8.45320e+00  2.29644e+00  1.48026e+01
       H  9.70744e+00  1.57234e+00  1.48026e+01
       O  1.32727e+01  0.00000e+00  1.45216e+01
       H  1.36931e+01  1.30683e+01  1.48026e+01
       H  1.36931e+01  7.24103e-01  1.48026e+01
       O  5.30883e+00  4.59771e+00  1.45216e+01
       H  4.47148e+00  4.59978e+00  1.48026e+01
       H  5.72572e+00  5.32388e+00  1.48026e+01
       O  5.30883e+00  9.19473e+00  1.17110e+01
       H  5.72572e+00  9.91677e+00  1.14374e+01
       H  5.30883e+00  9.19473e+00  1.25466e+01
       O  9.29095e+00  6.89622e+00  1.17110e+01
       H  8.45718e+00  6.89622e+00  1.14374e+01
       H  9.29095e+00  6.89622e+00  1.25466e+01
       O  1.32711e+00  1.14939e+01  1.17110e+01
       H  1.74399e+00  1.07719e+01  1.14374e+01
       H  1.32711e+00  1.14939e+01  1.25466e+01
       O  6.63634e+00  1.14939e+01  7.96345e+00
       H  6.63634e+00  1.14939e+01  8.79914e+00
       H  6.21945e+00  1.07719e+01  7.68988e+00
       O  6.63594e+00  6.89622e+00  7.96345e+00
       H  6.63594e+00  6.89622e+00  8.79914e+00
       H  7.46971e+00  6.89622e+00  7.68988e+00
       O  2.65461e+00  9.19473e+00  7.96345e+00
       H  2.65461e+00  9.19473e+00  8.79914e+00
       H  2.23773e+00  9.91677e+00  7.68988e+00
       O  6.63634e+00  1.14939e+01  1.07741e+01
       H  7.47369e+00  1.14960e+01  1.10551e+01
       H  6.21945e+00  1.22201e+01  1.10551e+01
       O  6.63594e+00  6.89622e+00  1.07741e+01
       H  6.21547e+00  7.62033e+00  1.10551e+01
       H  6.21547e+00  6.17212e+00  1.10551e+01
       O  2.65461e+00  9.19473e+00  1.07741e+01
       H  3.49197e+00  9.19266e+00  1.10551e+01
       H  2.23773e+00  8.46856e+00  1.10551e+01
       O  5.30883e+00  9.19473e+00  1.45216e+01
       H  5.72572e+00  8.46856e+00  1.48026e+01
       H  4.47148e+00  9.19266e+00  1.48026e+01
       O  9.29095e+00  6.89622e+00  1.45216e+01
       H  9.71142e+00  6.17212e+00  1.48026e+01
       H  9.71142e+00  7.62033e+00  1.48026e+01
       O  1.32711e+00  1.14939e+01  1.45216e+01
       H  1.74399e+00  1.22201e+01  1.48026e+01
       H  4.89752e-01  1.14960e+01  1.48026e+01
       O  1.32711e+00  2.29851e+00  1.92060e+01
       H  1.74399e+00  3.02055e+00  1.89324e+01
       H  1.32711e+00  2.29851e+00  2.00417e+01
       O  5.30923e+00  0.00000e+00  1.92060e+01
       H  5.30923e+00  0.00000e+00  2.00417e+01
       H  4.47546e+00  0.00000e+00  1.89324e+01
       O  1.32723e+01  4.59771e+00  1.92060e+01
       H  1.36892e+01  3.87568e+00  1.89324e+01
       H  1.32723e+01  4.59771e+00  2.00417e+01
       O  2.65461e+00  4.59771e+00  1.54585e+01
       H  2.65461e+00  4.59771e+00  1.62941e+01
       H  2.23773e+00  3.87568e+00  1.51849e+01
       O  2.65422e+00  0.00000e+00  1.54585e+01
       H  3.48799e+00  0.00000e+00  1.51849e+01
       H  2.65422e+00  0.00000e+00  1.62941e+01
       O  1.45998e+01  2.29851e+00  1.54585e+01
       H  1.45998e+01  2.29851e+00  1.62941e+01
       H  1.41829e+01  3.02055e+00  1.51849e+01
       O  2.65461e+00  4.59771e+00  1.82691e+01
       H  2.23773e+00  5.32388e+00  1.85501e+01
       H  3.49197e+00  4.59978e+00  1.85501e+01
       O  2.65422e+00  0.00000e+00  1.82691e+01
       H  2.23375e+00  1.30683e+01  1.85501e+01
       H  2.23375e+00  7.24103e-01  1.85501e+01
       O  1.45998e+01  2.29851e+00  1.82691e+01
       H  1.54371e+01  2.29644e+00  1.85501e+01
       H  1.41829e+01  1.57234e+00  1.85501e+01
       O  1.32711e+00  2.29851e+00  2.20166e+01
       H  1.74399e+00  1.57234e+00  2.22976e+01
       H  4.89752e-01  2.29644e+00  2.22976e+01
       O  5.30923e+00  0.00000e+00  2.20166e+01
       H  5.72970e+00  1.30683e+01  2.22976e+01
       H  5.72970e+00  7.24103e-01  2.22976e+01
       O  1.32723e+01  4.59771e+00  2.20166e+01
       H  1.24349e+01  4.59978e+00  2.22976e+01
       H  1.36892e+01  5.32388e+00  2.22976e+01
       O  1.32723e+01  9.19473e+00  1.92060e+01
       H  1.32723e+01  9.19473e+00  2.00417e+01
       H  1.36892e+01  9.91677e+00  1.89324e+01
       O  1.32751e+00  6.89622e+00  1.92060e+01
       H  4.93734e-01  6.89622e+00  1.89324e+01
       H  1.32751e+00  6.89622e+00  2.00417e+01
       O  9.29055e+00  1.14939e+01  1.92060e+01
       H  9.70744e+00  1.07719e+01  1.89324e+01
       H  9.29055e+00  1.14939e+01  2.00417e+01
       O  1.45998e+01  1.14939e+01  1.54585e+01
       H  1.41829e+01  1.07719e+01  1.51849e+01
       H  1.45998e+01  1.14939e+01  1.62941e+01
       O  1.45994e+01  6.89622e+00  1.54585e+01
       H  1.54332e+01  6.89622e+00  1.51849e+01
       H  1.45994e+01  6.89622e+00  1.62941e+01
       O  1.06181e+01  9.19473e+00  1.54585e+01
       H  1.06181e+01  9.19473e+00  1.62941e+01
       H  1.02012e+01  9.91677e+00  1.51849e+01
       O  1.45998e+01  1.14939e+01  1.82691e+01
       H  1.54371e+01  1.14960e+01  1.85501e+01
       H  1.41829e+01  1.22201e+01  1.85501e+01
       O  1.45994e+01  6.89622e+00  1.82691e+01
       H  1.41789e+01  6.17212e+00  1.85501e+01
       H  1.41789e+01  7.62033e+00  1.85501e+01
       O  1.06181e+01  9.19473e+00  1.82691e+01
       H  1.14554e+01  9.19266e+00  1.85501e+01
       H  1.02012e+01  8.46856e+00  1.85501e+01
       O  1.32723e+01  9.19473e+00  2.20166e+01
       H  1.24349e+01  9.19266e+00  2.22976e+01
       H  1.36892e+01  8.46856e+00  2.22976e+01
       O  1.32751e+00  6.89622e+00  2.20166e+01
       H  1.74798e+00  6.17212e+00  2.22976e+01
       H  1.74798e+00  7.62033e+00  2.22976e+01
       O  9.29055e+00  1.14939e+01  2.20166e+01
       H  8.45320e+00  1.14960e+01  2.22976e+01
       H  9.70744e+00  1.22201e+01  2.22976e+01
       O  9.29055e+00  2.29851e+00  1.92060e+01
       H  9.70744e+00  3.02055e+00  1.89324e+01
       H  9.29055e+00  2.29851e+00  2.00417e+01
       O  1.32727e+01  0.00000e+00  1.92060e+01
       H  1.24389e+01  0.00000e+00  1.89324e+01
       H  1.32727e+01  0.00000e+00  2.00417e+01
       O  5.30883e+00  4.59771e+00  1.92060e+01
       H  5.30883e+00  4.59771e+00  2.00417e+01
       H  5.72572e+00  3.87568e+00  1.89324e+01
       O  1.06181e+01  4.59771e+00  1.54585e+01
       H  1.06181e+01  4.59771e+00  1.62941e+01
       H  1.02012e+01  3.87568e+00  1.51849e+01
       O  1.06177e+01  0.00000e+00  1.54585e+01
       H  1.14514e+01  0.00000e+00  1.51849e+01
       H  1.06177e+01  0.00000e+00  1.62941e+01
       O  6.63634e+00  2.29851e+00  1.54585e+01
       H  6.21945e+00  3.02055e+00  1.51849e+01
       H  6.63634e+00  2.29851e+00  1.62941e+01
       O  1.06181e+01  4.59771e+00  1.82691e+01
       H  1.02012e+01  5.32388e+00  1.85501e+01
       H  1.14554e+01  4.59978e+00  1.85501e+01
       O  1.06177e+01  0.00000e+00  1.82691e+01
       H  1.01972e+01  1.30683e+01  1.85501e+01
       H  1.01972e+01  7.24103e-01  1.85501e+01
       O  6.63634e+00  2.29851e+00  1.82691e+01
       H  6.21945e+00  1.57234e+00  1.85501e+01
       H  7.47369e+00  2.29644e+00  1.85501e+01
       O  9.29055e+00  2.29851e+00  2.20166e+01
       H  8.45320e+00  2.29644e+00  2.22976e+01
       H  9.70744e+00  1.57234e+00  2.22976e+01
       O  1.32727e+01  0.00000e+00  2.20166e+01
       H  1.36931e+01  7.24103e-01  2.22976e+01
       H  1.36931e+01  1.30683e+01  2.22976e+01
       O  5.30883e+00  4.59771e+00  2.20166e+01
       H  5.72572e+00  5.32388e+00  2.22976e+01
       H  4.47148e+00  4.59978e+00  2.22976e+01
       O  5.30883e+00  9.19473e+00  1.92060e+01
       H  5.30883e+00  9.19473e+00  2.00417e+01
       H  5.72572e+00  9.91677e+00  1.89324e+01
       O  9.29095e+00  6.89622e+00  1.92060e+01
       H  9.29095e+00  6.89622e+00  2.00417e+01
       H  8.45718e+00  6.89622e+00  1.89324e+01
       O  1.32711e+00  1.14939e+01  1.92060e+01
       H  1.32711e+00  1.14939e+01  2.00417e+01
       H  1.74399e+00  1.07719e+01  1.89324e+01
       O  6.63634e+00  1.14939e+01  1.54585e+01
       H  6.63634e+00  1.14939e+01  1.62941e+01
       H  6.21945e+00  1.07719e+01  1.51849e+01
       O  6.63594e+00  6.89622e+00  1.54585e+01
       H  7.46971e+00  6.89622e+00  1.51849e+01
       H  6.63594e+00  6.89622e+00  1.62941e+01
       O  2.65461e+00  9.19473e+00  1.54585e+01
       H  2.23773e+00  9.91677e+00  1.51849e+01
       H  2.65461e+00  9.19473e+00  1.62941e+01
       O  6.63634e+00  1.14939e+01  1.82691e+01
       H  7.47369e+00  1.14960e+01  1.85501e+01
       H  6.21945e+00  1.22201e+01  1.85501e+01
       O  6.63594e+00  6.89622e+00  1.82691e+01
       H  6.21547e+00  6.17212e+00  1.85501e+01
       H  6.21547e+00  7.62033e+00  1.85501e+01
       O  2.65461e+00  9.19473e+00  1.82691e+01
       H  2.23773e+00  8.46856e+00  1.85501e+01
       H  3.49197e+00  9.19266e+00  1.85501e+01
       O  5.30883e+00  9.19473e+00  2.20166e+01
       H  5.72572e+00  8.46856e+00  2.22976e+01
       H  4.47148e+00  9.19266e+00  2.22976e+01
       O  9.29095e+00  6.89622e+00  2.20166e+01
       H  9.71142e+00  6.17212e+00  2.22976e+01
       H  9.71142e+00  7.62033e+00  2.22976e+01
       O  1.32711e+00  1.14939e+01  2.20166e+01
       H  1.74399e+00  1.22201e+01  2.22976e+01
       H  4.89752e-01  1.14960e+01  2.22976e+01
       O  1.16911e+00  2.26028e+00  2.65979e+01
       H  1.86264e+00  2.94903e+00  2.63525e+01
       H  1.26804e+00  2.36286e+00  2.75538e+01
       O  4.97693e+00 -3.87632e-02  2.70456e+01
       H  4.86475e+00 -4.66283e-01  2.79184e+01
       H  4.20732e+00 -1.76086e-01  2.65252e+01
       O  1.34772e+01  4.29275e+00  2.70877e+01
       H  1.36235e+01  3.42825e+00  2.67819e+01
       H  1.33852e+01  4.35836e+00  2.80200e+01
       O  2.65461e+00  4.59771e+00  2.29535e+01
       H  2.65461e+00  4.59771e+00  2.37892e+01
       H  2.23773e+00  3.87568e+00  2.26799e+01
       O  2.65422e+00  0.00000e+00  2.29535e+01
       H  2.65422e+00  0.00000e+00  2.37892e+01
       H  3.48799e+00  0.00000e+00  2.26799e+01
       O  1.45998e+01  2.29851e+00  2.29535e+01
       H  1.45998e+01  2.29851e+00  2.37892e+01
       H  1.41829e+01  3.02055e+00  2.26799e+01
       O  2.65461e+00  4.59771e+00  2.57641e+01
       H  3.49197e+00  4.59978e+00  2.60452e+01
       H  2.23773e+00  5.32388e+00  2.60452e+01
       O  2.65422e+00  0.00000e+00  2.57641e+01
       H  2.23375e+00  1.30683e+01  2.60452e+01
       H  2.23375e+00  7.24103e-01  2.60452e+01
       O  1.45998e+01  2.29851e+00  2.57641e+01
       H  1.54371e+01  2.29644e+00  2.60452e+01
       H  1.41829e+01  1.57234e+00  2.60452e+01
       O  2.00454e+00  2.71086e+00  2.91871e+01
       H  2.35186e+00  1.81425e+00  2.90955e+01
       H  1.20904e+00  2.62871e+00  2.97488e+01
       O  5.21042e+00 -1.03919e+00  3.00720e+01
       H  5.41462e+00  1.18198e+01  3.04327e+01
       H  5.57643e+00 -3.41223e-01  3.05530e+01
       O  1.37286e+01  5.16965e+00  2.99969e+01
       H  1.27787e+01  5.35780e+00  3.00029e+01
       H  1.43059e+01  5.89623e+00  2.97760e+01
       O  1.32670e+01  9.22634e+00  2.62976e+01
       H  1.30011e+01  9.28883e+00  2.72067e+01
       H  1.37376e+01  1.00831e+01  2.61433e+01
       O  1.38973e+00  7.12457e+00  2.67345e+01
       H  1.64713e+00  7.10807e+00  2.76998e+01
       H  4.53884e-01  6.84430e+00  2.65346e+01
       O  9.30826e+00  1.15071e+01  2.69544e+01
       H  9.28189e+00  1.13247e+01  2.79086e+01
       H  9.67381e+00  1.06931e+01  2.65480e+01
       O  1.45998e+01  1.14939e+01  2.29535e+01
       H  1.45998e+01  1.14939e+01  2.37892e+01
       H  1.41829e+01  1.07719e+01  2.26799e+01
       O  1.45994e+01  6.89622e+00  2.29535e+01
       H  1.45994e+01  6.89622e+00  2.37892e+01
       H  1.54332e+01  6.89622e+00  2.26799e+01
       O  1.06181e+01  9.19473e+00  2.29535e+01
       H  1.06181e+01  9.19473e+00  2.37892e+01
       H  1.02012e+01  9.91677e+00  2.26799e+01
       O  1.45998e+01  1.14939e+01  2.57641e+01
       H  1.54371e+01  1.14960e+01  2.60452e+01
       H  1.41829e+01  1.22201e+01  2.60452e+01
       O  1.45994e+01  6.89622e+00  2.57641e+01
       H  1.41789e+01  6.17212e+00  2.60452e+01
       H  1.41789e+01  7.62033e+00  2.60452e+01
       O  1.06181e+01  9.19473e+00  2.57641e+01
       H  1.14554e+01  9.19266e+00  2.60452e+01
       H  1.02012e+01  8.46856e+00  2.60452e+01
       O  1.37892e+01  9.55491e+00  2.96844e+01
       H  1.30002e+01  9.04657e+00  2.98960e+01
       H  1.43830e+01  8.83995e+00  2.98370e+01
       O  2.57487e+00  5.48019e+00  2.97476e+01
       H  2.37382e+00  5.88828e+00  3.05861e+01
       H  2.30632e+00  4.53558e+00  2.96045e+01
       O  8.83375e+00  1.05336e+01  2.96025e+01
       H  9.16815e+00  1.12803e+01  3.00209e+01
       H  7.90922e+00  1.03751e+01  2.98333e+01
       O  9.38901e+00  2.43040e+00  2.67812e+01
       H  9.35706e+00  2.21332e+00  2.77364e+01
       H  9.98709e+00  3.16156e+00  2.66371e+01
       O  1.32099e+01  6.72483e-02  2.64280e+01
       H  1.23419e+01  4.12436e-01  2.60903e+01
       H  1.32974e+01  4.80548e-02  2.73719e+01
       O  5.21014e+00  4.26937e+00  2.68536e+01
       H  5.21803e+00  4.17933e+00  2.78306e+01
       H  5.72210e+00  3.49355e+00  2.63684e+01
       O  1.06181e+01  4.59771e+00  2.29535e+01
       H  1.02012e+01  3.87568e+00  2.26799e+01
       H  1.06181e+01  4.59771e+00  2.37892e+01
       O  1.06177e+01  0.00000e+00  2.29535e+01
       H  1.14514e+01  0.00000e+00  2.26799e+01
       H  1.06177e+01  0.00000e+00  2.37892e+01
       O  6.63634e+00  2.29851e+00  2.29535e+01
       H  6.21945e+00  3.02055e+00  2.26799e+01
       H  6.63634e+00  2.29851e+00  2.37892e+01
       O  1.06181e+01  4.59771e+00  2.57641e+01
       H  1.14554e+01  4.59978e+00  2.60452e+01
       H  1.02012e+01  5.32388e+00  2.60452e+01
       O  1.06177e+01  0.00000e+00  2.57641e+01
       H  1.01972e+01  1.30683e+01  2.60452e+01
       H  1.01972e+01  7.24103e-01  2.60452e+01
       O  6.63634e+00  2.29851e+00  2.57641e+01
       H  6.21945e+00  1.57234e+00  2.60452e+01
       H  7.47369e+00  2.29644e+00  2.60452e+01
       O  8.77073e+00  9.63132e-01  2.94023e+01
       H  9.10697e+00  4.85099e-01  3.01523e+01
       H  7.87444e+00  8.45528e-01  2.95258e+01
       O  1.43594e+01 -7.06502e-01  2.90551e+01
       H  1.45745e+01  8.65545e-02  2.95739e+01
       H  1.36554e+01  1.25692e+01  2.94199e+01
       O  5.38930e+00  4.24494e+00  2.98145e+01
       H  4.43178e+00  4.31624e+00  2.97947e+01
       H  5.78523e+00  5.03754e+00  3.00286e+01
       O  5.41459e+00  9.35129e+00  2.65152e+01
       H  5.18643e+00  9.47554e+00  2.74642e+01
       H  5.82955e+00  1.01187e+01  2.61667e+01
       O  9.18662e+00  6.87047e+00  2.66877e+01
       H  8.28512e+00  7.25551e+00  2.65538e+01
       H  9.41481e+00  7.13611e+00  2.76167e+01
       O  1.24410e+00  1.13774e+01  2.66942e+01
       H  1.23237e+00  1.14971e+01  2.77254e+01
       H  1.95147e+00  1.08327e+01  2.63415e+01
       O  6.63634e+00  1.14939e+01  2.29535e+01
       H  6.21945e+00  1.07719e+01  2.26799e+01
       H  6.63634e+00  1.14939e+01  2.37892e+01
       O  6.63594e+00  6.89622e+00  2.29535e+01
       H  6.63594e+00  6.89622e+00  2.37892e+01
       H  7.46971e+00  6.89622e+00  2.26799e+01
       O  2.65461e+00  9.19473e+00  2.29535e+01
       H  2.23773e+00  9.91677e+00  2.26799e+01
       H  2.65461e+00  9.19473e+00  2.37892e+01
       O  6.63634e+00  1.14939e+01  2.57641e+01
       H  6.21945e+00  1.22201e+01  2.60452e+01
       H  7.47369e+00  1.14960e+01  2.60452e+01
       O  6.63594e+00  6.89622e+00  2.57641e+01
       H  6.21547e+00  6.17212e+00  2.60452e+01
       H  6.21547e+00  7.62033e+00  2.60452e+01
       O  2.65461e+00  9.19473e+00  2.57641e+01
       H  3.49197e+00  9.19266e+00  2.60452e+01
       H  2.23773e+00  8.46856e+00  2.60452e+01
       O  3.87574e+00  8.11915e+00  2.92965e+01
       H  3.90154e+00  7.27848e+00  2.96584e+01
       H  2.93714e+00  8.35576e+00  2.94650e+01
       O  9.66358e+00  6.33047e+00  2.94122e+01
       H  1.00856e+01  5.42415e+00  2.94762e+01
       H  1.02237e+01  6.95921e+00  2.99100e+01
       O  1.06978e+00  1.19512e+01  2.95150e+01
       H  1.55088e+00  1.28261e+01  2.94746e+01
       H  1.23029e-01  1.22725e+01  2.93437e+01
       O  1.62889e+00  8.31006e-01  3.55246e+01
       H  2.09408e+00  1.59813e+00  3.59362e+01
       H  1.79514e+00  1.00421e-01  3.61713e+01
       O  5.84635e+00 -9.06002e-01  3.41346e+01
       H  5.65488e+00 -2.36574e-01  3.34718e+01
       H  5.38553e+00 -6.85176e-01  3.49789e+01
       O  1.15748e+01  3.13870e+00  3.60937e+01
       H  1.06993e+01  3.06392e+00  3.64896e+01
       H  1.17500e+01  2.29115e+00  3.55715e+01
       O  3.85757e+00  2.39258e+00  3.21174e+01
       H  3.71239e+00  2.60632e+00  3.12010e+01
       H  3.40884e+00  3.18389e+00  3.25198e+01
       O  2.62882e+00  3.06668e-01  2.96641e+01
       H  3.48192e+00 -1.68180e-01  2.96782e+01
       H  2.35082e+00  2.03304e-01  3.05898e+01
       O  1.52801e+01  2.07968e+00  2.99408e+01
       H  1.51946e+01  2.30703e+00  3.08644e+01
       H  1.47007e+01  2.81455e+00  2.95931e+01
       O  3.18268e+00  4.67903e+00  3.34268e+01
       H  2.90516e+00  4.36975e+00  3.43207e+01
       H  3.13687e+00  5.65324e+00  3.32967e+01
       O  2.23238e+00 -2.17736e-01  3.25006e+01
       H  2.09534e+00  1.27506e+01  3.28881e+01
       H  2.36987e+00  3.77691e-01  3.32935e+01
       O  1.52800e+01  2.16426e+00  3.28286e+01
       H  1.47554e+01  1.50136e+00  3.32699e+01
       H  1.57341e+01  2.53079e+00  3.35811e+01
       O -4.66828e-01  4.07513e+00  3.80392e+01
       H -2.42687e-01  3.70693e+00  3.88796e+01
       H -1.41890e+00  3.76209e+00  3.79532e+01
       O  4.50414e+00 -1.10761e+00  3.67468e+01
       H  3.92603e+00 -1.81929e+00  3.66311e+01
       H  5.34284e+00  1.23290e+01  3.70639e+01
       O  1.26168e+01  5.48140e+00  3.48023e+01
       H  1.21430e+01  4.72403e+00  3.52993e+01
       H  1.21180e+01  6.27877e+00  3.47716e+01
       O  1.40295e+01  8.95985e+00  3.41551e+01
       H  1.49261e+01  9.16756e+00  3.41499e+01
       H  1.38812e+01  9.13001e+00  3.50615e+01
       O  1.02710e+00  5.69444e+00  3.50320e+01
       H  5.21669e-01  5.44816e+00  3.42208e+01
       H  3.22642e-01  6.18736e+00  3.54077e+01
       O  9.99665e+00  1.10166e+01  3.48318e+01
       H  1.03128e+01  1.10258e+01  3.39149e+01
       H  1.05379e+01  1.15566e+01  3.54515e+01