1008
Lattice="15.924514751336359 0.0 0.0 0.006740687250595107 13.788749460183615 0.0 -0.010877958891958622 -0.02385765067128803 51.971567853840476" Properties=species:S:1:pos:R:3 ipi_comment="Step:       46000  Bead:       0 positions{angstrom}  cell{angstrom}" pbc="T T T"
O        1.93720937       0.82223977       3.90633289
H        2.41502785       1.63249039       3.58978566
H        1.80919169       0.90953648       4.87646324
O        6.01051173      -0.94077128       4.48439650
H        5.65407976      -0.90083680       5.39899716
H        5.25277711      -0.90282072       3.89002624
O       14.55156603       3.57266399       4.04512384
H       14.93945629       2.86360811       3.57226310
H       14.12534818       3.41358554       4.88026742
O        3.22620248       3.80726271       0.62108792
H        2.77575115       4.59449241       0.31706224
H        3.15839196       3.70647507       1.62338612
O        3.24398857      -0.79730215       0.25320437
H        4.23403695      -0.89250844       0.11203568
H        3.13441110      -1.02279978       1.21551802
O       15.86551380       1.52114980       0.18142053
H       15.73064567       1.09168445       1.04977956
H       16.72161040       1.31219647      -0.17544690
O        3.35464508       3.22592219       3.35238007
H        3.18900684       4.11345996       3.70444065
H        4.31840224       3.18238236       3.49286592
O        3.49434858      -1.25561985       3.08645374
H        2.95407777      13.30297153       3.16248562
H        2.91825382      -2.02949805       3.27421933
O       15.20016531       0.86945654       2.88341557
H       14.72592243       0.09592842       3.24585706
H       16.07994450       0.76713183       3.26849041
O        2.24702555       0.90642792       6.97900413
H        1.33166207       1.00314813       7.31946355
H        2.59942499       0.12544444       7.51450256
O        5.79941133      -0.74578298       7.36197633
H        6.22889660      12.15698216       7.37460405
H        6.45836913      -0.09033258       7.32023199
O       13.84620499       3.25318856       6.70875444
H       12.95483243       3.30814760       7.04110555
H       14.34208500       4.03190714       7.04748400
O       13.95740434       8.09856869       3.66987666
H       13.90848143       7.99258943       4.68875778
H       14.52588284       8.84439656       3.45752894
O        2.51836452       5.83866512       4.29066731
H        2.29455570       5.87289585       5.20053260
H        1.62999871       5.79972626       3.86152577
O        9.82987658      10.48581143       4.20157688
H        9.99490389      10.16840617       5.13428802
H       10.20248980       9.62531083       3.83560731
O       15.22914577      10.71966776       0.09317602
H       15.28286421      10.66409033       1.04016627
H       14.77873462       9.93640051      -0.26126070
O       15.64380531       6.19237214       0.51922168
H       15.65456232       6.05359453       1.49157568
H       15.11697862       5.37788253       0.16922522
O       11.20748846       8.27725767       0.30502652
H       11.01068762       8.13945006       1.29002553
H       10.67724191       9.03042493      -0.05013565
O       15.30803074      10.48883577       3.04231874
H       14.77605225      11.17850099       3.47917854
H       16.16286731      10.51223423       3.48253700
O       15.82800017       5.96064450       3.26074039
H       15.14909560       6.66087359       3.29036652
H       15.42165881       5.10348462       3.51635558
O       11.21215776       8.19283184       3.11386478
H       10.87247094       7.40618057       3.55724588
H       12.11950309       8.27449738       3.45053613
O       13.75524043       7.89944261       6.67706124
H       12.80379059       7.66561811       6.80063073
H       14.14708649       7.22156761       7.25538383
O        1.80475520       5.87919289       7.00517397
H        2.19829896       5.08302432       7.48743830
H        2.23056071       6.66662308       7.45119779
O        9.99767138      10.27016955       7.08323821
H        9.04348957      10.27137402       7.35429198
H       10.31358670      11.06670053       7.47663700
O       10.52422128       1.66430924       3.99001075
H       10.97099967       2.40595230       3.58119882
H       10.41081173       1.80617292       4.94322444
O       13.96729374      -1.20362445       4.11931342
H       12.97822690      -1.35081720       4.11836107
H       14.09526539      -1.14228951       5.13836863
O        5.85344378       3.62002799       4.11992839
H        6.39795434       2.85220187       3.93185370
H        5.73768833       3.66399261       5.08693073
O       11.86803393       3.53270680      -0.13136653
H       11.28234739       2.79146659      -0.47786845
H       11.65154700       3.54753997       0.81420192
O       10.99414477      -1.12350142       0.50162125
H       11.94094034      -0.86262528       0.26361420
H       11.18532743      -1.38287286       1.42900368
O        7.51487620       0.77691784       0.71394272
H        8.39354591       1.14500333       0.41069557
H        7.47987787       0.89805767       1.66278152
O       11.68683381       3.87924562       2.57703770
H       11.38561168       4.71903842       2.93161664
H       12.59335354       3.75648162       2.87346445
O       11.44138745      -1.36355629       3.40068880
H       10.94877775      11.66811107       3.76927534
H       10.99215093      -0.55488194       3.35813958
O        7.37026199       1.33704163       3.37630761
H        8.30413586       1.31474453       3.60982856
H        6.94067527       0.67216621       3.86930105
O        9.70174740       1.28366482       6.59646907
H        8.81581548       1.49535202       6.91944159
H        9.95752060       0.44076202       7.02843553
O       13.75573320      -1.05429651       6.88901552
H       14.24749734      11.93078616       7.12316600
H       14.13378627      -0.30374395       7.36213289
O        5.93359355       3.75031003       7.01279204
H        6.30984825       4.58409855       7.38171884
H        5.00886006       3.69424449       7.27834789
O        6.12690799       8.39790696       4.28847325
H        6.55370473       9.29545248       4.10183675
H        5.94003334       8.25904248       5.23192886
O       10.14187491       5.94516457       3.89675544
H        9.27453310       6.23688622       3.52591899
H       10.00961499       5.81688099       4.88746751
O        1.88039595      10.38847717       4.17861408
H        2.38502954       9.60403044       4.04322523
H        1.98375952      10.61511318       5.13826111
O        7.12323586      10.47247962       0.56534112
H        7.36227233      10.61287414       1.50444589
H        6.64158201       9.59962316       0.45690820
O        7.52884874       5.93472567       0.04310659
H        7.06454276       5.10698426      -0.14686404
H        8.40140225       5.80287006      -0.37960110
O        3.55995593       8.67199947       0.79720841
H        3.32169105       9.51106455       0.36126211
H        3.39899148       8.74617036       1.75003339
O        7.35824986      10.68763255       3.15675692
H        7.01721350      11.43699462       3.63030200
H        8.28067129      10.67703467       3.46278410
O        7.95429790       7.03897706       2.73639682
H        7.18910753       7.30818967       3.26727483
H        7.64681213       6.47531358       1.99730950
O        3.40013908       8.36537696       3.60401406
H        3.04199158       7.51007696       3.82413717
H        4.38654000       8.37450936       3.80056178
O        5.95378170       8.30631832       7.04417696
H        5.01680748       8.33380271       7.38269723
H        6.31304745       7.50887805       7.51328835
O        9.79499534       5.60852462       6.56009872
H       10.31418766       6.47642462       6.84833222
H       10.37989393       4.88814219       6.76495392
O        1.80065652      10.57399317       7.06818825
H        2.24709429      11.15987423       7.67545465
H        0.86203956      10.43779936       7.32644251
O        2.10384351       1.06552453      12.06454757
H        2.53945003       1.81861256      11.62071817
H        1.97406845       1.19736415      13.03767026
O        6.12356463      -0.89706732      11.58333226
H        6.14893994      -1.03280149      12.53237314
H        5.17183199      -0.94405298      11.45179960
O       13.80374807       3.50006312      12.10959569
H       14.40953253       2.78641453      11.98703436
H       13.57327250       3.54207262      13.05193664
O        3.20709450       3.64535905       7.87227349
H        2.98379349       2.70885646       7.61991872
H        3.14285076       3.61755897       8.81059423
O        3.27126231      -1.23680794       8.45947894
H        3.23616777      -0.93465989       9.42473130
H        4.15386294      -1.14008451       8.04419730
O       15.62174393       1.20355801       8.06787542
H       14.98420525       1.84940529       7.67339699
H       15.60359842       1.28923498       9.06075181
O        3.12603938       3.22972920      10.58233919
H        2.66046232       3.95353443      11.03024955
H        4.03936451       3.35295508      10.87170989
O        3.46791630      -1.19505214      11.17410106
H        2.82936115      11.83030633      11.41577118
H        3.18302443      -0.36835277      11.65367429
O       15.42049529       1.37856737      11.01872357
H       14.66819470       0.74740688      11.09432931
H       16.16138276       0.94378637      11.47516022
O        2.00034600       1.14121167      14.99055604
H        1.06866335       1.22985934      15.26836188
H        2.30703036       0.24571402      15.12369145
O        5.98323161      -1.43251970      14.21859731
H        6.60491761      11.60022795      14.33103762
H        6.41409011      -0.65588986      14.52812120
O       13.72481505       3.35947214      14.92689778
H       14.22440336       4.09014168      15.35810025
H       12.80755680       3.21934834      15.32043573
O       13.59140354       8.13529927      11.88430203
H       13.72355904       7.96261179      12.85561527
H       14.09665134       8.93886935      11.68354904
O        1.77474624       5.65913479      11.65535545
H        1.86931123       5.72001270      12.61181693
H        0.79182098       5.72104999      11.49492222
O        9.78878862      10.01530936      11.42715099
H       10.27598183       9.55330835      10.76855739
H       10.01432225       9.81043135      12.35396080
O       15.02073201      10.55772659       7.87267498
H       14.85062889       9.64586354       7.62760900
H       14.99415969      10.50558241       8.90013661
O       15.15234761       5.79380158       7.94744962
H       16.12162550       5.84742448       7.74303171
H       15.09085420       5.56507732       8.92106557
O       10.83091516       7.73556258       7.67725776
H       10.96824978       7.68482963       8.66815430
H       10.43662516       8.58326197       7.50972232
O       15.08099849      10.48500002      10.72860905
H       14.73465386      11.36998552      11.06466504
H       15.95763533      10.44930884      11.08980872
O       14.95725581       5.85464008      10.81759215
H       14.40289026       6.59612360      11.07692550
H       14.54746278       5.04680878      11.13934916
O       11.25771636       7.73485034      10.30088359
H       10.87945310       6.93760008      10.67221564
H       12.04457958       7.91844444      10.85831684
O       13.96219408       7.57660262      14.53262927
H       14.57150334       6.88075381      14.86015193
H       13.16622862       7.46132827      15.07527368
O        1.75930293       5.50689734      14.66095263
H        2.11951880       6.24567409      15.13799580
H        2.14128369       4.73918284      15.06127878
O       10.27934167       9.91912413      14.29713147
H        9.43120788       9.98191851      14.79681126
H       10.69652187      10.77896031      14.39024633
O        9.97739357       1.05016377      11.80788448
H       10.51464362       1.81303355      11.38989904
H        9.93497412       1.23657415      12.74579659
O       13.62717508      -0.85792726      11.55578986
H       12.74598920      -1.17033282      11.19802325
H       13.63385066      -1.06566951      12.53737787
O        5.75390130       3.60371351      11.68244847
H        6.40129412       2.96375837      11.38529712
H        5.85633828       3.60716620      12.65045042
O       11.33827296       3.52128177       7.81914874
H       10.95529236       2.67065263       7.43704469
H       11.30949943       3.43249605       8.75819146
O       10.93913963      -1.20538553       7.86226306
H       10.85374938      -1.29292665       8.84208673
H       11.83346052      -0.96574139       7.65131672
O        7.20846459       1.57437264       7.76970576
H        7.24177843       1.64519029       8.75869076
H        6.76386962       2.43978690       7.51466370
O       11.28085662       3.23669590      10.76518136
H       10.74200397       3.94403142      10.93979257
H       12.00511459       3.41083766      11.37080133
O       11.01519646      -1.33802027      10.46225076
H       10.49527224      11.74000574      10.86273397
H       10.50500619      -0.52722963      10.85958828
O        7.35415183       1.33748276      10.63986857
H        8.20492072       1.25270405      11.05271674
H        6.85213567       0.50800194      11.01311220
O       10.17437641       1.13530430      14.68359604
H        9.21323160       1.09344069      14.86831832
H       10.62945546       0.33947535      14.97877443
O       13.97170529      -1.30798457      14.27021339
H       14.18824397      11.60355421      14.58421190
H       14.52257634      -0.65080287      14.67952129
O        6.15261739       3.59672435      14.27375205
H        5.22207417       3.66321481      14.60050533
H        6.62196159       4.36407183      14.59562156
O        5.47407964       8.01758397      11.92503902
H        6.08657010       8.80540518      11.83586127
H        5.65135096       7.61467743      12.79023764
O        9.77740940       5.57056168      11.31132873
H        8.83915801       5.89064071      11.17508896
H        9.84521895       5.46941013      12.28870203
O        2.02414413      10.39809671      11.97065025
H        2.39298816       9.60608018      11.49854926
H        1.86209529      10.10781957      12.86865422
O        7.39878082      10.48494300       7.99053546
H        7.23655485      10.49721655       8.94095642
H        6.84495956       9.77112203       7.65846020
O        7.32344710       5.81269688       7.92272552
H        7.33544544       5.78864637       8.93515819
H        8.19904236       5.80970712       7.55108723
O        3.08250473       8.20935580       7.87547720
H        2.93176715       8.45150768       8.78848873
H        2.88290494       8.98510935       7.34148600
O        6.99486882      10.32748249      10.92188331
H        7.94575081      10.31874625      11.07926377
H        6.68193747      11.25213334      11.09778947
O        6.94017233       6.01835735      10.86021137
H        6.44653852       6.72400077      11.30357768
H        6.50765764       5.21420779      11.18643342
O        2.91547983       8.01502165      10.80100420
H        3.79051181       8.07206439      11.14404120
H        2.62317935       7.12848840      11.05082350
O        5.51724445       7.68878034      14.57369381
H        6.05738065       7.12281319      15.03674405
H        4.61662718       7.68155987      14.91296539
O       10.03209112       5.37616058      14.10656417
H       10.22608097       4.55930483      14.56560372
H       10.50525923       6.02280271      14.67875785
O        1.74818243      10.22234508      14.81385788
H        2.34259688      10.96994186      14.85817383
H        0.89520570      10.51161884      15.18260127
O        1.57618731       0.91302716      18.94056419
H        2.08339379       1.59531945      18.39554533
H        1.72628462       1.06938904      19.85880187
O        6.14968423      -1.06855299      19.11073026
H        6.14811830      -0.87058301      20.08944023
H        5.17710514      -1.26248324      18.92532812
O       13.85145344       3.45309639      19.35301445
H       14.05276083       2.49689352      19.06009487
H       13.63478375       3.38278801      20.27593498
O        3.65041594       3.53021240      15.41271259
H        3.68906583       3.44307981      16.44374108
H        3.19082340       2.70274582      15.22421805
O        3.41473128      -1.46752681      15.51715324
H        4.20649191      -1.45860442      14.96708499
H        3.67302929      -1.59875877      16.48804713
O       15.13524099       0.93783361      15.41950754
H       15.00518441       0.83621211      16.40684802
H       14.63415707       1.77160432      15.29274422
O        3.22342173       3.09606322      18.09275522
H        2.81970250       3.82037944      18.59056711
H        4.05024751       2.95208690      18.67394844
O        3.46087559      -1.41081790      18.30211032
H        2.77218963      11.71689628      18.59151050
H        3.03297070      -0.58170722      18.43603097
O       14.74608426       1.15590836      18.16702063
H       15.65611257       1.11462990      18.45157546
H       14.43844336       0.23560547      18.12667963
O        2.25426323       1.64536592      21.77678137
H        2.53501230       0.88376341      22.30934212
H        1.55597272       2.11931164      22.19772172
O        7.29492583      -3.18127610      23.09135990
H        6.83667229      10.86822133      23.97027728
H        6.82587842      -3.94807283      22.71486113
O       13.39870736       3.72153148      22.12434829
H       12.54964440       3.79717230      22.54100361
H       13.87228487       4.54876003      22.42731446
O       13.29501378       7.63088429      19.42277262
H       13.26619782       7.54220918      20.41446343
H       13.79450336       8.42984767      19.22819125
O        2.14463910       5.24679473      19.16741363
H        1.27174584       5.38406519      18.85501870
H        1.99848154       5.18701256      20.13097201
O        9.66416705      10.28467825      18.98499780
H        9.99546372       9.36570392      18.76370636
H        9.71278350      10.40193850      19.94143385
O       14.82556999      10.12092365      15.44669160
H       14.40144457       9.26507451      15.18775785
H       14.60291082      10.18763089      16.40403829
O       15.20405878       5.51300449      15.67384056
H       16.06219196       5.59176768      15.29179605
H       15.28225568       5.70234012      16.66955558
O       11.33992571       7.50216678      15.65539130
H       11.01144206       7.66124619      16.55906514
H       11.08209466       8.27440457      15.12712150
O       14.72633883       9.88501822      18.69687027
H       15.57426761      10.19487928      18.96790585
H       14.26563762      10.72724600      18.75491275
O       15.19932407       5.63026922      18.35620799
H       14.83827097       4.78044101      18.60790159
H       14.66139456       6.32987438      18.74333543
O       10.82505175       7.85285681      18.39236578
H       11.72366557       7.73563299      18.82962104
H       10.33764094       7.04798000      18.63977724
O       13.81705412       8.40300871      22.35021200
H       12.83485849       8.40118569      22.48087163
H       14.13882975       7.62520666      22.80127351
O        1.73432872       5.45490364      21.94379118
H        2.48410842       4.91770108      22.24702913
H        2.13291227       6.36077319      21.96364632
O       10.02565878      10.78405005      21.76564467
H        9.09698190      10.93772732      21.91607052
H       10.45424415      11.50034133      22.21790253
O        9.65875391       0.91129299      19.20272752
H       10.29241525       1.61643809      18.99404166
H        9.55804203       0.90779778      20.15588159
O       13.56268820      -1.24297128      19.01250048
H       12.69189139      -0.86049385      18.88206858
H       13.68031947      -1.05245617      20.00058872
O        5.69578301       3.22839180      18.95789045
H        5.93327181       3.16285320      19.90383612
H        6.21102714       2.50695628      18.50931977
O       11.12272942       3.44480456      15.69032260
H       11.03707712       3.43562313      16.68869044
H       10.74879287       2.59993814      15.47497372
O       11.35581673      -1.30165818      15.13919461
H       12.36042519      -1.24231448      14.96532066
H       11.22068368      -1.30586596      16.09285169
O        6.97386309       1.12898080      15.26892737
H        6.60066038       1.91087023      14.88603013
H        6.89994137       1.25259445      16.24059750
O       11.09592097       3.17455803      18.61579308
H       10.50560657       3.83712366      19.09451059
H       12.03131120       3.44468653      18.90016135
O       11.03402977      -1.37313393      17.84886442
H       10.61355994      11.64537409      18.16613646
H       10.54891981      -0.68782052      18.34662720
O        7.36333532       1.09036032      18.02182938
H        6.90980904       0.42067734      18.59320163
H        8.27355489       1.25637604      18.40503296
O        9.69685663       1.05249261      22.20227596
H        8.81352389       0.87274169      22.66331381
H       10.28827976       0.33184439      22.52165931
O       14.13324607      -0.66086807      21.77767502
H       14.56074151       0.25245179      21.88219253
H       14.74731499      12.56310089      22.23497314
O        6.35275924       3.51133349      21.92516583
H        6.97996419       4.19418979      21.95101353
H        5.54500029       3.93270762      22.19975580
O        6.02146915       7.84236793      19.26362893
H        6.21491262       7.86485699      20.20130598
H        6.40533793       8.72133155      18.90349438
O        9.55443619       5.59157330      19.25823031
H        9.63197793       5.56489259      20.22077004
H        8.69327305       5.27383370      18.91749105
O        1.65149972      10.46751096      19.03463893
H        1.69490191      10.35839853      20.02867117
H        1.98324678       9.60856544      18.84333995
O        7.27644767       9.94366975      15.17109189
H        7.16059548      10.17236673      16.11177287
H        6.60431125       9.21332803      15.02392090
O        7.43192597       5.76275077      15.25169289
H        8.37527382       5.65861649      15.09373728
H        7.28657730       5.61869163      16.20567312
O        2.88383906       7.91160679      15.53177749
H        2.41022321       8.71017860      15.26889566
H        3.15677285       8.09632900      16.43925511
O        7.13359360      10.43489692      18.04533724
H        8.04380596      10.37498453      18.31319692
H        6.83427258      11.25721815      18.51539421
O        6.99131477       5.55706512      18.00118935
H        6.55022124       4.88486718      18.48252050
H        6.86621630       6.42798101      18.45355713
O        3.37149751       8.00468018      18.54924542
H        3.26086162       7.14004615      18.82074299
H        4.22311668       8.26654617      18.94042730
O        6.05450340       8.10261158      22.10854874
H        6.54504674       7.33506193      22.55517182
H        5.12806602       8.00035602      22.26288128
O        9.85071903       5.67455852      21.83459057
H       10.11128116       4.80226990      22.19726035
H       10.47108399       6.37894179      22.10645551
O        2.12546371      10.36559594      22.04650810
H        2.47845843      11.26625114      22.23205774
H        1.32722065      10.37302252      22.53615919
O        2.54117277      -0.63572398      38.02530721
H        2.19037477      -1.51511861      38.03608094
H        1.76195535      -0.16902929      38.43191014
O        3.09863397      -0.87713839      23.27906380
H        2.68293230      -1.05720150      24.13400625
H        4.02909109      -1.15055247      23.30699655
O        8.12114337       3.80478655      30.94377289
H        7.53753435       3.47280159      31.66367056
H        9.03013412       3.77775770      31.33156193
O        4.75110665       1.21977503      27.44289721
H        4.51921454       0.44249589      27.92272558
H        5.07888966       1.71754637      28.18494644
O        3.83114543       3.78319336      23.14994182
H        3.74120752       3.66156772      24.09748934
H        3.49811186       2.95170028      22.76164291
O       15.45015202       1.67861367      22.96656153
H       15.59468595       1.54580440      23.89763656
H       14.91254748       2.47492582      22.98668792
O       -1.79247583       4.36025755      30.02282610
H       -1.11527254       4.94589457      30.36979649
H       -2.39383751       5.03417842      29.68181037
O        0.48013728      -2.31780577      30.36805078
H        0.49638986      12.44685998      30.35294481
H        1.16784047      -2.49174836      31.06125106
O       16.07799226      -0.09163082      26.94602193
H       16.07282048       0.68811896      26.41252665
H       16.19241635       0.23044481      27.87051784
O        9.07498558       3.92079854      28.20014497
H        8.46678119       3.52180792      27.56446958
H        8.73043495       3.89947976      29.03283245
O       11.64675727      12.34697409      29.44432060
H       12.09751407      26.27539855      30.30141121
H       11.14255837      13.18392793      29.28800301
O       16.02707417      -4.76686381      25.76021754
H       16.04232534      -4.58693169      26.73323591
H       15.56063054      -5.60265429      25.73294770
O        9.88342748       6.45507672      27.46611749
H        9.67734736       5.53519705      27.79276338
H        9.06138513       6.94376814      27.48650588
O      -15.85449917       4.70534469      27.46134756
H      -14.94107261       4.82934654      27.76225718
H      -16.26144110       4.42897587      28.28676729
O        5.70855826      12.84774086      21.92121877
H        6.20269580      13.62876401      22.26820723
H        6.26781711      12.08218725      22.21670092
O       15.57846133      10.45110854      23.36387924
H       15.73929021      10.05910279      24.22504716
H       14.87904572       9.82781833      22.99734559
O       14.82841092       5.72140569      23.23015727
H       15.75387257       5.75418653      22.90575296
H       14.87828056       6.04844441      24.14323912
O       11.00890589       8.03889487      22.53264080
H       10.92828761       8.19213276      23.50357190
H       10.59877073       8.83305934      22.25765914
O       15.37080027       6.79415768      33.91418843
H       15.32000357       6.10242752      34.60781062
H       14.50045600       7.24389247      33.80383907
O       18.29569633       7.71945864      25.58865452
H       18.90186038       7.87699619      26.32548411
H       17.50061671       8.34638858      25.67924844
O       11.28687841       4.09105749      25.50844701
H       11.70243630       3.54689601      26.14844617
H       11.16498629       4.99369425      25.90251004
O        8.91952042       8.81614328      24.84337683
H        8.68756171       7.96933106      24.47029069
H        8.50670253       9.46814564      24.29882307
O       -0.89038616       4.68882216      35.56286344
H       -0.19870410       3.99026031      35.69062265
H       -1.65362506       4.39087818      36.04291677
O        4.48786522      10.88109872      26.92515071
H        5.30256707      11.29605125      26.39120329
H        3.61824850      11.25615781      26.69719165
O        8.21526900      -0.35357799      31.19968927
H        8.25013513      -0.01822934      30.29316423
H        8.92314328       0.19367029      31.62535380
O       19.33980870      -0.93450376      31.37233140
H       20.19633296      -0.84549720      31.84337397
H       19.53575322      -1.21291899      30.46589191
O       13.93548414       9.10904706      28.91896897
H       13.71044600       9.68617136      29.67830170
H       14.88928153       9.08890581      28.87026511
O       10.72316074       3.37847107      23.11840114
H       10.40139214       2.46853721      22.95621807
H       10.87069195       3.56168502      24.00345287
O       11.53026054      -1.15492778      23.07497662
H       12.40928954      -0.94006745      22.68499564
H       11.63786019      -0.75147593      23.96330856
O        7.10754342       1.03501467      22.88987945
H        6.83903660       1.93803828      22.70091549
H        7.03210809       0.83188064      23.86065133
O       11.10659430      -0.28397659      26.17589655
H       11.97858952      -0.33420576      26.54843951
H       10.71173097      -1.18669004      26.23962240
O        9.43766701       1.81207758      26.19305163
H       10.16055805      14.91495071      26.25276484
H        9.81246415       2.60080851      25.78228088
O        7.00891706       0.66363183      25.48874616
H        7.84309730       1.12362438      25.68394314
H        6.33626326       1.04949650      26.14424999
O       12.87481129      -0.57009864      32.69110170
H       13.35284638      -0.64698732      33.53376013
H       11.94162539      -0.48092175      32.86360667
O       14.45578317      -0.55355565      34.63928291
H       14.07941318      -0.20729834      35.48000805
H       14.71264127      12.30953135      34.78593534
O        3.88416410       4.66461136      33.77098928
H        4.01972497       5.57664572      33.56668387
H        3.11160550       4.38442180      33.15926894
O       10.25568283      14.69657098      29.03312909
H        9.78509172      15.16421635      28.30887219
H       10.82632490      15.36601450      29.45383997
O        7.62668873       4.63514751      25.60540840
H        6.83372030       4.10013769      25.74609819
H        7.37288412       5.43279670      26.20460281
O       -6.66141530      10.99489368      29.97953942
H       -5.78874607      11.34040260      29.67973817
H       -7.10414193      11.69915015      30.52786916
O        6.63354076      11.66510894      25.74835413