1008
Lattice="15.9268 0.0 0.0 0.0 13.7924 0.0 0.0 0.0 52.465" Properties=species:S:1:pos:R:3 #=T CELL(abcABC):=T 15.92680=T 13.79240=T 52.46500=T 90.00000=T Step:=T 5000=T Bead:=T 0=T positionsangstrom=T cellangstrom=T pbc="T T T"
O        1.32711000       2.29851000       4.21594000
H        1.74399000       3.02055000       3.94237000
H        1.32711000       2.29851000       5.05164000
O        5.30923000       0.00000000       4.21594000
H        5.30923000       0.00000000       5.05164000
H        4.47546000       0.00000000       3.94237000
O       13.27230000       4.59771000       4.21594000
H       13.68920000       3.87568000       3.94237000
H       13.27230000       4.59771000       5.05164000
O        2.65461000       4.59771000       0.46843800
H        2.65461000       4.59771000       1.30413000
H        2.23773000       3.87568000       0.19487000
O        2.65422000       0.00000000       0.46843800
H        3.48799000       0.00000000       0.19487000
H        2.65422000       0.00000000       1.30413000
O       14.59980000       2.29851000       0.46843800
H       14.59980000       2.29851000       1.30413000
H       14.18290000       3.02055000       0.19487000
O        2.65461000       4.59771000       3.27907000
H        2.23773000       5.32388000       3.56013000
H        3.49197000       4.59978000       3.56013000
O        2.65422000       0.00000000       3.27907000
H        2.23375000      13.06830000       3.56013000
H        2.23375000       0.72410300       3.56013000
O       14.59980000       2.29851000       3.27907000
H       14.18290000       1.57234000       3.56013000
H       15.43710000       2.29644000       3.56013000
O        1.32711000       2.29851000       7.02657000
H        0.48975200       2.29644000       7.30763000
H        1.74399000       1.57234000       7.30763000
O        5.30923000       0.00000000       7.02657000
H        5.72970000      13.06830000       7.30763000
H        5.72970000       0.72410300       7.30763000
O       13.27230000       4.59771000       7.02657000
H       12.43490000       4.59978000       7.30763000
H       13.68920000       5.32388000       7.30763000
O       13.27230000       9.19473000       4.21594000
H       13.27230000       9.19473000       5.05164000
H       13.68920000       9.91677000       3.94237000
O        1.32751000       6.89622000       4.21594000
H        1.32751000       6.89622000       5.05164000
H        0.49373400       6.89622000       3.94237000
O        9.29055000      11.49390000       4.21594000
H        9.29055000      11.49390000       5.05164000
H        9.70744000      10.77190000       3.94237000
O       14.59980000      11.49390000       0.46843800
H       14.18290000      10.77190000       0.19487000
H       14.59980000      11.49390000       1.30413000
O       14.59940000       6.89622000       0.46843800
H       14.59940000       6.89622000       1.30413000
H       15.43320000       6.89622000       0.19487000
O       10.61810000       9.19473000       0.46843800
H       10.61810000       9.19473000       1.30413000
H       10.20120000       9.91677000       0.19487000
O       14.59980000      11.49390000       3.27907000
H       14.18290000      12.22010000       3.56013000
H       15.43710000      11.49600000       3.56013000
O       14.59940000       6.89622000       3.27907000
H       14.17890000       7.62033000       3.56013000
H       14.17890000       6.17212000       3.56013000
O       10.61810000       9.19473000       3.27907000
H       10.20120000       8.46856000       3.56013000
H       11.45540000       9.19266000       3.56013000
O       13.27230000       9.19473000       7.02657000
H       12.43490000       9.19266000       7.30763000
H       13.68920000       8.46856000       7.30763000
O        1.32751000       6.89622000       7.02657000
H        1.74798000       6.17212000       7.30763000
H        1.74798000       7.62033000       7.30763000
O        9.29055000      11.49390000       7.02657000
H        8.45320000      11.49600000       7.30763000
H        9.70744000      12.22010000       7.30763000
O        9.29055000       2.29851000       4.21594000
H        9.70744000       3.02055000       3.94237000
H        9.29055000       2.29851000       5.05164000
O       13.27270000       0.00000000       4.21594000
H       12.43890000       0.00000000       3.94237000
H       13.27270000       0.00000000       5.05164000
O        5.30883000       4.59771000       4.21594000
H        5.30883000       4.59771000       5.05164000
H        5.72572000       3.87568000       3.94237000
O       10.61810000       4.59771000       0.46843800
H       10.20120000       3.87568000       0.19487000
H       10.61810000       4.59771000       1.30413000
O       10.61770000       0.00000000       0.46843800
H       11.45140000       0.00000000       0.19487000
H       10.61770000       0.00000000       1.30413000
O        6.63634000       2.29851000       0.46843800
H        6.63634000       2.29851000       1.30413000
H        6.21945000       3.02055000       0.19487000
O       10.61810000       4.59771000       3.27907000
H       10.20120000       5.32388000       3.56013000
H       11.45540000       4.59978000       3.56013000
O       10.61770000       0.00000000       3.27907000
H       10.19720000      13.06830000       3.56013000
H       10.19720000       0.72410300       3.56013000
O        6.63634000       2.29851000       3.27907000
H        7.47369000       2.29644000       3.56013000
H        6.21945000       1.57234000       3.56013000
O        9.29055000       2.29851000       7.02657000
H        8.45320000       2.29644000       7.30763000
H        9.70744000       1.57234000       7.30763000
O       13.27270000       0.00000000       7.02657000
H       13.69310000      13.06830000       7.30763000
H       13.69310000       0.72410300       7.30763000
O        5.30883000       4.59771000       7.02657000
H        5.72572000       5.32388000       7.30763000
H        4.47148000       4.59978000       7.30763000
O        5.30883000       9.19473000       4.21594000
H        5.72572000       9.91677000       3.94237000
H        5.30883000       9.19473000       5.05164000
O        9.29095000       6.89622000       4.21594000
H        8.45718000       6.89622000       3.94237000
H        9.29095000       6.89622000       5.05164000
O        1.32711000      11.49390000       4.21594000
H        1.74399000      10.77190000       3.94237000
H        1.32711000      11.49390000       5.05164000
O        6.63634000      11.49390000       0.46843800
H        6.63634000      11.49390000       1.30413000
H        6.21945000      10.77190000       0.19487000
O        6.63594000       6.89622000       0.46843800
H        6.63594000       6.89622000       1.30413000
H        7.46971000       6.89622000       0.19487000
O        2.65461000       9.19473000       0.46843800
H        2.23773000       9.91677000       0.19487000
H        2.65461000       9.19473000       1.30413000
O        6.63634000      11.49390000       3.27907000
H        6.21945000      12.22010000       3.56013000
H        7.47369000      11.49600000       3.56013000
O        6.63594000       6.89622000       3.27907000
H        6.21547000       6.17212000       3.56013000
H        6.21547000       7.62033000       3.56013000
O        2.65461000       9.19473000       3.27907000
H        2.23773000       8.46856000       3.56013000
H        3.49197000       9.19266000       3.56013000
O        5.30883000       9.19473000       7.02657000
H        4.47148000       9.19266000       7.30763000
H        5.72572000       8.46856000       7.30763000
O        9.29095000       6.89622000       7.02657000
H        9.71142000       7.62033000       7.30763000
H        9.71142000       6.17212000       7.30763000
O        1.32711000      11.49390000       7.02657000
H        1.74399000      12.22010000       7.30763000
H        0.48975200      11.49600000       7.30763000
O        1.32711000       2.29851000      11.71100000
H        1.74399000       3.02055000      11.43740000
H        1.32711000       2.29851000      12.54660000
O        5.30923000       0.00000000      11.71100000
H        5.30923000       0.00000000      12.54660000
H        4.47546000       0.00000000      11.43740000
O       13.27230000       4.59771000      11.71100000
H       13.68920000       3.87568000      11.43740000
H       13.27230000       4.59771000      12.54660000
O        2.65461000       4.59771000       7.96345000
H        2.23773000       3.87568000       7.68988000
H        2.65461000       4.59771000       8.79914000
O        2.65422000       0.00000000       7.96345000
H        2.65422000       0.00000000       8.79914000
H        3.48799000       0.00000000       7.68988000
O       14.59980000       2.29851000       7.96345000
H       14.18290000       3.02055000       7.68988000
H       14.59980000       2.29851000       8.79914000
O        2.65461000       4.59771000      10.77410000
H        2.23773000       5.32388000      11.05510000
H        3.49197000       4.59978000      11.05510000
O        2.65422000       0.00000000      10.77410000
H        2.23375000      13.06830000      11.05510000
H        2.23375000       0.72410300      11.05510000
O       14.59980000       2.29851000      10.77410000
H       14.18290000       1.57234000      11.05510000
H       15.43710000       2.29644000      11.05510000
O        1.32711000       2.29851000      14.52160000
H        0.48975200       2.29644000      14.80260000
H        1.74399000       1.57234000      14.80260000
O        5.30923000       0.00000000      14.52160000
H        5.72970000      13.06830000      14.80260000
H        5.72970000       0.72410300      14.80260000
O       13.27230000       4.59771000      14.52160000
H       13.68920000       5.32388000      14.80260000
H       12.43490000       4.59978000      14.80260000
O       13.27230000       9.19473000      11.71100000
H       13.27230000       9.19473000      12.54660000
H       13.68920000       9.91677000      11.43740000
O        1.32751000       6.89622000      11.71100000
H        1.32751000       6.89622000      12.54660000
H        0.49373400       6.89622000      11.43740000
O        9.29055000      11.49390000      11.71100000
H        9.70744000      10.77190000      11.43740000
H        9.29055000      11.49390000      12.54660000
O       14.59980000      11.49390000       7.96345000
H       14.18290000      10.77190000       7.68988000
H       14.59980000      11.49390000       8.79914000
O       14.59940000       6.89622000       7.96345000
H       15.43320000       6.89622000       7.68988000
H       14.59940000       6.89622000       8.79914000
O       10.61810000       9.19473000       7.96345000
H       10.61810000       9.19473000       8.79914000
H       10.20120000       9.91677000       7.68988000
O       14.59980000      11.49390000      10.77410000
H       14.18290000      12.22010000      11.05510000
H       15.43710000      11.49600000      11.05510000
O       14.59940000       6.89622000      10.77410000
H       14.17890000       7.62033000      11.05510000
H       14.17890000       6.17212000      11.05510000
O       10.61810000       9.19473000      10.77410000
H       10.20120000       8.46856000      11.05510000
H       11.45540000       9.19266000      11.05510000
O       13.27230000       9.19473000      14.52160000
H       13.68920000       8.46856000      14.80260000
H       12.43490000       9.19266000      14.80260000
O        1.32751000       6.89622000      14.52160000
H        1.74798000       7.62033000      14.80260000
H        1.74798000       6.17212000      14.80260000
O        9.29055000      11.49390000      14.52160000
H        8.45320000      11.49600000      14.80260000
H        9.70744000      12.22010000      14.80260000
O        9.29055000       2.29851000      11.71100000
H        9.70744000       3.02055000      11.43740000
H        9.29055000       2.29851000      12.54660000
O       13.27270000       0.00000000      11.71100000
H       12.43890000       0.00000000      11.43740000
H       13.27270000       0.00000000      12.54660000
O        5.30883000       4.59771000      11.71100000
H        5.72572000       3.87568000      11.43740000
H        5.30883000       4.59771000      12.54660000
O       10.61810000       4.59771000       7.96345000
H       10.20120000       3.87568000       7.68988000
H       10.61810000       4.59771000       8.79914000
O       10.61770000       0.00000000       7.96345000
H       10.61770000       0.00000000       8.79914000
H       11.45140000       0.00000000       7.68988000
O        6.63634000       2.29851000       7.96345000
H        6.63634000       2.29851000       8.79914000
H        6.21945000       3.02055000       7.68988000
O       10.61810000       4.59771000      10.77410000
H       10.20120000       5.32388000      11.05510000
H       11.45540000       4.59978000      11.05510000
O       10.61770000       0.00000000      10.77410000
H       10.19720000      13.06830000      11.05510000
H       10.19720000       0.72410300      11.05510000
O        6.63634000       2.29851000      10.77410000
H        7.47369000       2.29644000      11.05510000
H        6.21945000       1.57234000      11.05510000
O        9.29055000       2.29851000      14.52160000
H        8.45320000       2.29644000      14.80260000
H        9.70744000       1.57234000      14.80260000
O       13.27270000       0.00000000      14.52160000
H       13.69310000      13.06830000      14.80260000
H       13.69310000       0.72410300      14.80260000
O        5.30883000       4.59771000      14.52160000
H        4.47148000       4.59978000      14.80260000
H        5.72572000       5.32388000      14.80260000
O        5.30883000       9.19473000      11.71100000
H        5.72572000       9.91677000      11.43740000
H        5.30883000       9.19473000      12.54660000
O        9.29095000       6.89622000      11.71100000
H        8.45718000       6.89622000      11.43740000
H        9.29095000       6.89622000      12.54660000
O        1.32711000      11.49390000      11.71100000
H        1.74399000      10.77190000      11.43740000
H        1.32711000      11.49390000      12.54660000
O        6.63634000      11.49390000       7.96345000
H        6.63634000      11.49390000       8.79914000
H        6.21945000      10.77190000       7.68988000
O        6.63594000       6.89622000       7.96345000
H        6.63594000       6.89622000       8.79914000
H        7.46971000       6.89622000       7.68988000
O        2.65461000       9.19473000       7.96345000
H        2.65461000       9.19473000       8.79914000
H        2.23773000       9.91677000       7.68988000
O        6.63634000      11.49390000      10.77410000
H        7.47369000      11.49600000      11.05510000
H        6.21945000      12.22010000      11.05510000
O        6.63594000       6.89622000      10.77410000
H        6.21547000       7.62033000      11.05510000
H        6.21547000       6.17212000      11.05510000
O        2.65461000       9.19473000      10.77410000
H        3.49197000       9.19266000      11.05510000
H        2.23773000       8.46856000      11.05510000
O        5.30883000       9.19473000      14.52160000
H        5.72572000       8.46856000      14.80260000
H        4.47148000       9.19266000      14.80260000
O        9.29095000       6.89622000      14.52160000
H        9.71142000       6.17212000      14.80260000
H        9.71142000       7.62033000      14.80260000
O        1.32711000      11.49390000      14.52160000
H        1.74399000      12.22010000      14.80260000
H        0.48975200      11.49600000      14.80260000
O        1.32711000       2.29851000      19.20600000
H        1.74399000       3.02055000      18.93240000
H        1.32711000       2.29851000      20.04170000
O        5.30923000       0.00000000      19.20600000
H        5.30923000       0.00000000      20.04170000
H        4.47546000       0.00000000      18.93240000
O       13.27230000       4.59771000      19.20600000
H       13.68920000       3.87568000      18.93240000
H       13.27230000       4.59771000      20.04170000
O        2.65461000       4.59771000      15.45850000
H        2.65461000       4.59771000      16.29410000
H        2.23773000       3.87568000      15.18490000
O        2.65422000       0.00000000      15.45850000
H        3.48799000       0.00000000      15.18490000
H        2.65422000       0.00000000      16.29410000
O       14.59980000       2.29851000      15.45850000
H       14.59980000       2.29851000      16.29410000
H       14.18290000       3.02055000      15.18490000
O        2.65461000       4.59771000      18.26910000
H        2.23773000       5.32388000      18.55010000
H        3.49197000       4.59978000      18.55010000
O        2.65422000       0.00000000      18.26910000
H        2.23375000      13.06830000      18.55010000
H        2.23375000       0.72410300      18.55010000
O       14.59980000       2.29851000      18.26910000
H       15.43710000       2.29644000      18.55010000
H       14.18290000       1.57234000      18.55010000
O        1.32711000       2.29851000      22.01660000
H        1.74399000       1.57234000      22.29760000
H        0.48975200       2.29644000      22.29760000
O        5.30923000       0.00000000      22.01660000
H        5.72970000      13.06830000      22.29760000
H        5.72970000       0.72410300      22.29760000
O       13.27230000       4.59771000      22.01660000
H       12.43490000       4.59978000      22.29760000
H       13.68920000       5.32388000      22.29760000
O       13.27230000       9.19473000      19.20600000
H       13.27230000       9.19473000      20.04170000
H       13.68920000       9.91677000      18.93240000
O        1.32751000       6.89622000      19.20600000
H        0.49373400       6.89622000      18.93240000
H        1.32751000       6.89622000      20.04170000
O        9.29055000      11.49390000      19.20600000
H        9.70744000      10.77190000      18.93240000
H        9.29055000      11.49390000      20.04170000
O       14.59980000      11.49390000      15.45850000
H       14.18290000      10.77190000      15.18490000
H       14.59980000      11.49390000      16.29410000
O       14.59940000       6.89622000      15.45850000
H       15.43320000       6.89622000      15.18490000
H       14.59940000       6.89622000      16.29410000
O       10.61810000       9.19473000      15.45850000
H       10.61810000       9.19473000      16.29410000
H       10.20120000       9.91677000      15.18490000
O       14.59980000      11.49390000      18.26910000
H       15.43710000      11.49600000      18.55010000
H       14.18290000      12.22010000      18.55010000
O       14.59940000       6.89622000      18.26910000
H       14.17890000       6.17212000      18.55010000
H       14.17890000       7.62033000      18.55010000
O       10.61810000       9.19473000      18.26910000
H       11.45540000       9.19266000      18.55010000
H       10.20120000       8.46856000      18.55010000
O       13.27230000       9.19473000      22.01660000
H       12.43490000       9.19266000      22.29760000
H       13.68920000       8.46856000      22.29760000
O        1.32751000       6.89622000      22.01660000
H        1.74798000       6.17212000      22.29760000
H        1.74798000       7.62033000      22.29760000
O        9.29055000      11.49390000      22.01660000
H        8.45320000      11.49600000      22.29760000
H        9.70744000      12.22010000      22.29760000
O        9.29055000       2.29851000      19.20600000
H        9.70744000       3.02055000      18.93240000
H        9.29055000       2.29851000      20.04170000
O       13.27270000       0.00000000      19.20600000
H       12.43890000       0.00000000      18.93240000
H       13.27270000       0.00000000      20.04170000
O        5.30883000       4.59771000      19.20600000
H        5.30883000       4.59771000      20.04170000
H        5.72572000       3.87568000      18.93240000
O       10.61810000       4.59771000      15.45850000
H       10.61810000       4.59771000      16.29410000
H       10.20120000       3.87568000      15.18490000
O       10.61770000       0.00000000      15.45850000
H       11.45140000       0.00000000      15.18490000
H       10.61770000       0.00000000      16.29410000
O        6.63634000       2.29851000      15.45850000
H        6.21945000       3.02055000      15.18490000
H        6.63634000       2.29851000      16.29410000
O       10.61810000       4.59771000      18.26910000
H       10.20120000       5.32388000      18.55010000
H       11.45540000       4.59978000      18.55010000
O       10.61770000       0.00000000      18.26910000
H       10.19720000      13.06830000      18.55010000
H       10.19720000       0.72410300      18.55010000
O        6.63634000       2.29851000      18.26910000
H        6.21945000       1.57234000      18.55010000
H        7.47369000       2.29644000      18.55010000
O        9.29055000       2.29851000      22.01660000
H        8.45320000       2.29644000      22.29760000
H        9.70744000       1.57234000      22.29760000
O       13.27270000       0.00000000      22.01660000
H       13.69310000       0.72410300      22.29760000
H       13.69310000      13.06830000      22.29760000
O        5.30883000       4.59771000      22.01660000
H        5.72572000       5.32388000      22.29760000
H        4.47148000       4.59978000      22.29760000
O        5.30883000       9.19473000      19.20600000
H        5.30883000       9.19473000      20.04170000
H        5.72572000       9.91677000      18.93240000
O        9.29095000       6.89622000      19.20600000
H        9.29095000       6.89622000      20.04170000
H        8.45718000       6.89622000      18.93240000
O        1.32711000      11.49390000      19.20600000
H        1.32711000      11.49390000      20.04170000
H        1.74399000      10.77190000      18.93240000
O        6.63634000      11.49390000      15.45850000
H        6.63634000      11.49390000      16.29410000
H        6.21945000      10.77190000      15.18490000
O        6.63594000       6.89622000      15.45850000
H        7.46971000       6.89622000      15.18490000
H        6.63594000       6.89622000      16.29410000
O        2.65461000       9.19473000      15.45850000
H        2.23773000       9.91677000      15.18490000
H        2.65461000       9.19473000      16.29410000
O        6.63634000      11.49390000      18.26910000
H        7.47369000      11.49600000      18.55010000
H        6.21945000      12.22010000      18.55010000
O        6.63594000       6.89622000      18.26910000
H        6.21547000       6.17212000      18.55010000
H        6.21547000       7.62033000      18.55010000
O        2.65461000       9.19473000      18.26910000
H        2.23773000       8.46856000      18.55010000
H        3.49197000       9.19266000      18.55010000
O        5.30883000       9.19473000      22.01660000
H        5.72572000       8.46856000      22.29760000
H        4.47148000       9.19266000      22.29760000
O        9.29095000       6.89622000      22.01660000
H        9.71142000       6.17212000      22.29760000
H        9.71142000       7.62033000      22.29760000
O        1.32711000      11.49390000      22.01660000
H        1.74399000      12.22010000      22.29760000
H        0.48975200      11.49600000      22.29760000
O        1.16911000       2.26028000      26.59790000
H        1.86264000       2.94903000      26.35250000
H        1.26804000       2.36286000      27.55380000
O        4.97693000      13.75363680      27.04560000
H        4.86475000      13.32611700      27.91840000
H        4.20732000      13.61631400      26.52520000
O       13.47720000       4.29275000      27.08770000
H       13.62350000       3.42825000      26.78190000
H       13.38520000       4.35836000      28.02000000
O        2.65461000       4.59771000      22.95350000
H        2.65461000       4.59771000      23.78920000
H        2.23773000       3.87568000      22.67990000
O        2.65422000       0.00000000      22.95350000
H        2.65422000       0.00000000      23.78920000
H        3.48799000       0.00000000      22.67990000
O       14.59980000       2.29851000      22.95350000
H       14.59980000       2.29851000      23.78920000
H       14.18290000       3.02055000      22.67990000
O        2.65461000       4.59771000      25.76410000
H        3.49197000       4.59978000      26.04520000
H        2.23773000       5.32388000      26.04520000
O        2.65422000       0.00000000      25.76410000
H        2.23375000      13.06830000      26.04520000
H        2.23375000       0.72410300      26.04520000
O       14.59980000       2.29851000      25.76410000
H       15.43710000       2.29644000      26.04520000
H       14.18290000       1.57234000      26.04520000
O        2.00454000       2.71086000      29.18710000
H        2.35186000       1.81425000      29.09550000
H        1.20904000       2.62871000      29.74880000
O        5.21042000      12.75321000      30.07200000
H        5.41462000      11.81980000      30.43270000
H        5.57643000      13.45117700      30.55300000
O       13.72860000       5.16965000      29.99690000
H       12.77870000       5.35780000      30.00290000
H       14.30590000       5.89623000      29.77600000
O       13.26700000       9.22634000      26.29760000
H       13.00110000       9.28883000      27.20670000
H       13.73760000      10.08310000      26.14330000
O        1.38973000       7.12457000      26.73450000
H        1.64713000       7.10807000      27.69980000
H        0.45388400       6.84430000      26.53460000
O        9.30826000      11.50710000      26.95440000
H        9.28189000      11.32470000      27.90860000
H        9.67381000      10.69310000      26.54800000
O       14.59980000      11.49390000      22.95350000
H       14.59980000      11.49390000      23.78920000
H       14.18290000      10.77190000      22.67990000
O       14.59940000       6.89622000      22.95350000
H       14.59940000       6.89622000      23.78920000
H       15.43320000       6.89622000      22.67990000
O       10.61810000       9.19473000      22.95350000
H       10.61810000       9.19473000      23.78920000
H       10.20120000       9.91677000      22.67990000
O       14.59980000      11.49390000      25.76410000
H       15.43710000      11.49600000      26.04520000
H       14.18290000      12.22010000      26.04520000
O       14.59940000       6.89622000      25.76410000
H       14.17890000       6.17212000      26.04520000
H       14.17890000       7.62033000      26.04520000
O       10.61810000       9.19473000      25.76410000
H       11.45540000       9.19266000      26.04520000
H       10.20120000       8.46856000      26.04520000
O       13.78920000       9.55491000      29.68440000
H       13.00020000       9.04657000      29.89600000
H       14.38300000       8.83995000      29.83700000
O        2.57487000       5.48019000      29.74760000
H        2.37382000       5.88828000      30.58610000
H        2.30632000       4.53558000      29.60450000
O        8.83375000      10.53360000      29.60250000
H        9.16815000      11.28030000      30.02090000
H        7.90922000      10.37510000      29.83330000
O        9.38901000       2.43040000      26.78120000
H        9.35706000       2.21332000      27.73640000
H        9.98709000       3.16156000      26.63710000
O       13.20990000       0.06724830      26.42800000
H       12.34190000       0.41243600      26.09030000
H       13.29740000       0.04805480      27.37190000
O        5.21014000       4.26937000      26.85360000
H        5.21803000       4.17933000      27.83060000
H        5.72210000       3.49355000      26.36840000
O       10.61810000       4.59771000      22.95350000
H       10.20120000       3.87568000      22.67990000
H       10.61810000       4.59771000      23.78920000
O       10.61770000       0.00000000      22.95350000
H       11.45140000       0.00000000      22.67990000
H       10.61770000       0.00000000      23.78920000
O        6.63634000       2.29851000      22.95350000
H        6.21945000       3.02055000      22.67990000
H        6.63634000       2.29851000      23.78920000
O       10.61810000       4.59771000      25.76410000
H       11.45540000       4.59978000      26.04520000
H       10.20120000       5.32388000      26.04520000
O       10.61770000       0.00000000      25.76410000
H       10.19720000      13.06830000      26.04520000
H       10.19720000       0.72410300      26.04520000
O        6.63634000       2.29851000      25.76410000
H        6.21945000       1.57234000      26.04520000
H        7.47369000       2.29644000      26.04520000
O        8.77073000       0.96313200      29.40230000
H        9.10697000       0.48509900      30.15230000
H        7.87444000       0.84552800      29.52580000
O       14.35940000      13.08589800      29.05510000
H       14.57450000       0.08655450      29.57390000
H       13.65540000      12.56920000      29.41990000
O        5.38930000       4.24494000      29.81450000
H        4.43178000       4.31624000      29.79470000
H        5.78523000       5.03754000      30.02860000
O        5.41459000       9.35129000      26.51520000
H        5.18643000       9.47554000      27.46420000
H        5.82955000      10.11870000      26.16670000
O        9.18662000       6.87047000      26.68770000
H        8.28512000       7.25551000      26.55380000
H        9.41481000       7.13611000      27.61670000
O        1.24410000      11.37740000      26.69420000
H        1.23237000      11.49710000      27.72540000
H        1.95147000      10.83270000      26.34150000
O        6.63634000      11.49390000      22.95350000
H        6.21945000      10.77190000      22.67990000