#Bead    Energy (eV)
0     -0.13643778144151492
1     -0.11682763247256384
2     -0.07998495231234463
3     -0.03589587070267655
4     -0.004495428388787665
5     -0.004495428388787657
6     -0.035895870702676504
7     -0.07998495231234456
8     -0.11682763247256384
9     -0.13643778144151497
