#Bead    Energy (eV)
0     0.047036854765933556
1     0.04712900790101059
2     0.047315930542456676
3     0.0476028898307433
4     0.047997869685386794
5     0.04851166259751311
6     0.04915797781803408
7     0.04995355222838543
8     0.050918244845668405
9     0.05207508936003967
10     0.05345027118229685
11     0.05507298616288022
12     0.0569751275905025
13     0.05919073674965188
14     0.06175514111536677
15     0.06470369471440168
16     0.06807002963436441
17     0.07188372949569241
18     0.0761673494842717
19     0.08093273905728887
20     0.08617667944375318
21     0.09187587020690466
22     0.09797612894449244
23     0.10438049481285447
24     0.11095040890210024
25     0.11750346019655901
26     0.12381277704619206
27     0.12961471829131488
28     0.13471194133926062
29     0.1389906438288615
30     0.14235280546648552
31     0.1447094850599291
32     0.14597828453910686
33     0.14609855818334724
34     0.14509266838326926
35     0.14311679012306955
36     0.14035470358888175
37     0.13698820383232263
38     0.1330950671307344
39     0.12868831059937463
40     0.12379390210321599
41     0.11846088739219184
42     0.11283150314354558
43     0.1070750673236984
44     0.10133404517523462
45     0.09572409113342542
46     0.09033565698980993
47     0.08523311836794935
48     0.08045177478094767
49     0.07601245157361881
50     0.07192630503415656
51     0.06819665462749051
52     0.06482068009588983
53     0.061790953751580564
54     0.05909679467706789
55     0.05672544347371355
56     0.05466271320439372
57     0.05289320471183739
58     0.05140282968680471
59     0.050179456032365045
60     0.04921294562019397
61     0.04849517579438169
62     0.04802005029660842
63     0.047783503910963754
