#Bead    Energy (eV)
0     0.047915165445753465
1     0.04802231351691342
2     0.048239719461782744
3     0.04857359109038855
4     0.049033311488364366
5     0.04963154230555014
6     0.050384340402776485
7     0.051311268786300504
8     0.052435475555697775
9     0.05378370520437249
10     0.055386195179487493
11     0.05727639680489201
12     0.0594904455746757
13     0.06206629026694555
14     0.0650423753741142
15     0.06845575305892444
16     0.07233945913039769
17     0.07671901401468893
18     0.0816079443211183
19     0.08700228487145303
20     0.09287423442674834
21     0.09915875532610371
22     0.10574351235340454
23     0.11246981896117804
24     0.11913059360211073
25     0.12547100728346633
26     0.13121172893889496
27     0.13617795168389776
28     0.1402539718077934
29     0.14333885382495576
30     0.14533785432318114
31     0.14616982718314578
32     0.14578902132130592
33     0.14428923094501506
34     0.14185657791087153
35     0.13869008110148298
36     0.134941346543859
37     0.13063373635553316
38     0.1257833346636765
39     0.12042219536906727
40     0.11465716422975336
41     0.10867396151296281
42     0.1026372456157865
43     0.09668288482253863
44     0.09091912095272867
45     0.0854257968016882
46     0.08024828555399126
47     0.07541378572647194
48     0.07093818140076627
49     0.06682800809037619
50     0.0630822986922996
51     0.05969427060379134
52     0.056652831989178296
53     0.05394301735753944
54     0.051545513954305
55     0.04944156947339861
56     0.04761421591555752
57     0.046048332504746284
58     0.04473068132966597
59     0.043649923607138014
60     0.04279662300754023
61     0.04216324119762606
62     0.04174412965490374
63     0.041535520841955234
