#Bead    Energy (eV)
0     0.046892856495516666
1     0.046982837939309005
2     0.047165365471269594
3     0.04744560302999105
4     0.047831380497831574
5     0.04833328679943668
6     0.048964780496905405
7     0.049742304778124906
8     0.05068538859593769
9     0.051816709378514694
10     0.05316208504162121
11     0.05475035394450371
12     0.05661309107464164
13     0.058784097536286176
14     0.06129858918781147
15     0.06419200044821873
16     0.06749831309270628
17     0.0712478204964421
18     0.0754642496458234
19     0.08016119191035755
20     0.08533784567085377
21     0.09097414882467499
22     0.09702162652488346
23     0.1033895766196234
24     0.10994581487520075
25     0.11651474370418288
26     0.12287638323024674
27     0.12877028427973788
28     0.13398088556707574
29     0.13838948382953603
30     0.1418963620724326
31     0.14441264078366234
32     0.1458543400846629
33     0.14615723518902515
34     0.14532173446256647
35     0.14349102880392256
36     0.14084682250493796
37     0.1375747876803251
38     0.1337750799815571
39     0.12946196017531197
40     0.12465941554690191
41     0.11940930658670187
42     0.11383633778859738
43     0.10811190162229885
44     0.10238230505455916
45     0.09676695991912386
46     0.0913598456347534
47     0.08623001697449988
48     0.0814168247104995
49     0.07694276862594737
50     0.0728204172619373
51     0.06905426428547713
52     0.06564244649996731
53     0.06257830068259038
54     0.05985174375919278
55     0.05745047335995536
56     0.05536089797915914
57     0.053568176567279184
58     0.05205813490274401
59     0.050818541516791056
60     0.04983916959518793
61     0.04911182190049014
62     0.04863034421783403
63     0.04839063176652785
