#Bead    Energy (eV)
0     0.04693910738858697
1     0.04702980456583738
2     0.04721378114324349
3     0.047496236149067006
4     0.04788505188615871
5     0.048390886643731375
6     0.049027284553195195
7     0.04981078927928397
8     0.05076104303212698
9     0.051900845974555625
10     0.05325614332999277
11     0.0548558983281081
12     0.05673179869928445
13     0.058917733174138856
14     0.06144896321853982
15     0.06436090549595162
16     0.06768743456102094
17     0.0714586163225178
18     0.07569779531578565
19     0.08041798845364473
20     0.0856175913478734
21     0.09127546878457823
22     0.09734126485078005
23     0.10372214926914533
24     0.11028378600873942
25     0.1168482676905463
26     0.1231932662941457
27     0.12905698275767444
28     0.1342298517128384
29     0.13859503984688984
30     0.14205339733960604
31     0.14451604283399902
32     0.14589946756435343
33     0.14614055258610756
34     0.14524679948428623
35     0.143366245376424
36     0.14068134036882401
37     0.13737678259985578
38     0.13354505983282428
39     0.1291997293147799
40     0.12436544553922278
41     0.11908620949231671
42     0.11349294779449233
43     0.1077565678390871
44     0.10202209593826703
45     0.09640768491548528
46     0.09100612688308532
47     0.08588494968779788
48     0.08108204125881675
49     0.07661932604473261
50     0.07250888910228245
51     0.0687548199003612
52     0.0653549236989942
53     0.06230227046440701
54     0.059586566577641775
55     0.057195346925673636
56     0.05511483131692187
57     0.05332995526609639
58     0.0518265643965543
59     0.05059245897813065
60     0.049617440637068785
61     0.048893336120786966
62     0.04841400988906687
63     0.04817536992595923
