#Bead    Energy (eV)
0     0.0661889008629074
1     0.06647426016589354
2     0.06697529215458661
3     0.06769811048795421
4     0.06865095284555046
5     0.0698441545296568
6     0.0712896123110296
7     0.07300053792853292
8     0.07499091120412098
9     0.07727457573045982
10     0.07986372993682027
11     0.08276812093386218
12     0.08599403010358495
13     0.08954283840867194
14     0.0934077973105164
15     0.0975689208050062
16     0.10199296029576237
17     0.10663216503150544
18     0.11142119975426476
19     0.11627461504577619
20     0.12108786698078905
21     0.1257378776241308
22     0.1300908657049122
23     0.13405415055035094
24     0.1375589084791528
25     0.14054231608873866
26     0.1429482501200824
27     0.1447223736309907
28     0.14581586041606556
29     0.1461908979866841
30     0.1458301542309095
31     0.144787161074781
32     0.1431509369239614
33     0.14101759501455666
34     0.1384864587589631
35     0.135626607994573
36     0.1324514769541923
37     0.12897473945082955
38     0.12521695630565963
39     0.12120480594414136
40     0.116992128264772
41     0.11266843732548826
42     0.10831567410704121
43     0.10400353147677228
44     0.09978860060153923
45     0.09571660359025486
46     0.09182368377574611
47     0.08813725627969593
48     0.08467277684336257
49     0.08143820591821531
50     0.07843817455899511
51     0.07567447560855317
52     0.07314611396405668
53     0.07084997089325819
54     0.06878171554530715
55     0.06693636289825045
56     0.06530836420926438
57     0.06389196591851017
58     0.06268155332674624
59     0.06167185804744343
60     0.06085809723238098
61     0.06023613794123961
62     0.05980268828196377
63     0.05955516525759201
