#Bead    Energy (eV)
0     0.049212276192543675
1     0.0493727740424248
2     0.04967605629579452
3     0.0501311047606533
4     0.050750961829094804
5     0.051552840547655784
6     0.05255806778082637
7     0.053792082293934486
8     0.0552842580055289
9     0.057067465581002126
10     0.059177189019982424
11     0.06165058265050006
12     0.06452507446730768
13     0.06783632467406664
14     0.07161500148547112
15     0.07588303366119621
16     0.08065024324998213
17     0.08591001391422491
18     0.09163408572481874
19     0.09776229283744474
20     0.1041918990781323
21     0.11078045669258897
22     0.11734425291354399
23     0.12365755236622873
24     0.1294607903434953
25     0.13455939493408156
26     0.13884495015502188
27     0.14222452221725151
28     0.1446141094172517
29     0.14593480440316134
30     0.14612686239506376
31     0.14520222178767364
32     0.14330660426831154
33     0.14061604296363822
34     0.13730812359076108
35     0.13346666988099654
36     0.12909879510449512
37     0.12422238622896949
38     0.11887570366914746
39     0.11318925978679491
40     0.10733318171379257
41     0.10145332506158518
42     0.09567019042282474
43     0.09007981266960467
44     0.08475090343114401
45     0.07972188634446903
46     0.0750168274028329
47     0.07065001052294281
48     0.06662690386606146
49     0.06294615895305478
50     0.059601413896843966
51     0.056582476305207074
52     0.05387525712261223
53     0.051461227986673894
54     0.049322341796792554
55     0.04744218379244872
56     0.045805899717679906
57     0.04440024144305188
58     0.04321360868371972
59     0.0422360409612827
60     0.041459191285774175
61     0.040876320907218266
62     0.04048231642601388
63     0.04027358936215093
