#Bead    Energy (eV)
0     0.0468675862599136
1     0.04695718403016402
2     0.04713893499638353
3     0.04741798470122928
4     0.047802135560618735
5     0.04830194018370214
6     0.04893081238110813
7     0.04970514286594315
8     0.050644401548013994
9     0.051771202023001936
10     0.05311129620966222
11     0.05469345803989541
12     0.05654920478537778
13     0.05871229341582533
14     0.06121791814977299
15     0.0641015254862787
16     0.06739715669094927
17     0.07113522813838814
18     0.07533967143336269
19     0.08002438340353833
20     0.08518898746585474
21     0.09081398541841777
22     0.09685188039493388
23     0.10321309743973481
24     0.10976657529697155
25     0.11633791766763717
26     0.12270836098740698
27     0.12861822480753152
28     0.13384882831041867
29     0.13828036194236445
30     0.1418127967438358
31     0.1443572267707269
32     0.1458294352457013
33     0.14616463312868416
34     0.14535968397161714
35     0.14355507472074472
36     0.14093213364843651
37     0.1376769436640077
38     0.13389365055365746
39     0.1295970066095933
40     0.12481065365439488
41     0.11957546273717595
42     0.11401288156719806
43     0.10829448161877818
44     0.10256724734521462
45     0.09695125420077028
46     0.09154110548516632
47     0.08640662522590538
48     0.08158794796378174
49     0.07710787751879086
50     0.07297923349859223
51     0.06920671872246592
52     0.06578864085574675
53     0.06271847352390512
54     0.05998624102713974
55     0.05757972341514071
56     0.05548541601328643
57     0.053688595647025265
58     0.052175081004713
59     0.05093262316019239
60     0.049950979727129065
61     0.04922194037713555
62     0.04873934072494175
63     0.048499069047973055
