#Bead    Energy (eV)
0     0.04718852646213532
1     0.047283160956172146
2     0.04747511085420086
3     0.04776977222179043
4     0.04817532181699391
5     0.048702807749296195
6     0.049366255340950724
7     0.05018277372745354
8     0.05117264315183499
9     0.05235935607724003
10     0.05376957702399705
11     0.05543297641806465
12     0.0573818829113346
13     0.05965068711633906
14     0.06227491847629948
15     0.06528990770908924
16     0.06872894243048229
17     0.0726208267543743
18     0.07698677168847542
19     0.08183657801729873
20     0.08716413405331548
21     0.09294206740748163
22     0.09910890618412568
23     0.10556009621595032
24     0.11214892032667909
25     0.11868411890989643
26     0.1249297209467017
27     0.13062086061936332
28     0.135582035058129
29     0.13970273151662863
30     0.14288650458207605
31     0.14504373842671953
32     0.14609427346508827
33     0.14598358456335261
34     0.14476500856408567
35     0.14260685330748896
36     0.13969591304956003
37     0.13620454668076543
38     0.1321842062167212
39     0.12764912184641014
40     0.12262792998593118
41     0.11718419552185473
42     0.11147942830232825
43     0.1056789135155068
44     0.09992039979763345
45     0.0943148745135693
46     0.08894827611828168
47     0.08387811232739326
48     0.07913543918746634
49     0.07473893706476613
50     0.07069792536693773
51     0.06701418041650571
52     0.06368360931825462
53     0.060697753863787604
54     0.05804511314512036
55     0.055712246510686576
56     0.0536837711960523
57     0.051943918084662845
58     0.05047870977730197
59     0.04927612126902506
60     0.04832611164129625
61     0.04762064094372308
62     0.04715367769874584
63     0.04692120114181102
