#Bead    Energy (eV)
0     0.047635908894093054
1     0.047736658930441475
2     0.047940966348182706
3     0.048254478149858324
4     0.04868574357260001
5     0.049246299382256956
6     0.04995076690253158
7     0.050816944832442625
8     0.051865875874096856
9     0.05312185787640378
10     0.054612361481113945
11     0.056367806151610536
12     0.058421135263512176
13     0.060807119223252895
14     0.06356130449337603
15     0.06671851773466381
16     0.07031083087588776
17     0.07436489874757661
18     0.07889860095054747
19     0.08391695992141349
20     0.08940731511096373
21     0.095332107673981
22     0.101613619044304
23     0.10813167536592573
24     0.11472245344322811
25     0.12117654707403866
26     0.12724002241909602
27     0.1326656507692956
28     0.1373160706576441
29     0.14108452461342894
30     0.1438770092004632
31     0.1456035703665189
32     0.14619092368373748
33     0.14561017563640133
34     0.14397768037281183
35     0.14147439678842552
36     0.13829089398224598
37     0.13455763180714708
38     0.13029331393519364
39     0.12551807150539487
40     0.12026757024434293
41     0.11465011902507723
42     0.10884234623099907
43     0.1029990587591007
44     0.0972474606142983
45     0.09168845452857409
46     0.08639727236948326
47     0.08141769099262364
48     0.07677477429976638
49     0.07248301187526605
50     0.06854823449180729
51     0.0649693795034727
52     0.06174009754549972
53     0.05885017744163621
54     0.05628677955537999
55     0.054034733493071134
56     0.05207709731954445
57     0.050398330669674495
58     0.04898478374525714
59     0.04782473558511518
60     0.04690841406250522
61     0.046228003937556855
62     0.04577764789727002
63     0.045553444301691885
