7
# CELL(abcABC):   13.38377    13.38377    13.38377    90.00000    90.00000    90.00000  Step:           0  Bead:       6 positions{angstrom}  cell{angstrom}
       O  5.54810e-01 -9.55480e-01 -1.98800e-01
       O  2.93311e+00 -8.23540e-01 -6.65000e-03
       H  1.68750e-01 -1.34489e+00 -9.96690e-01
       H  1.74588e+00 -9.04260e-01 -1.15740e-01
       H  3.26075e+00 -5.77420e-01  8.70960e-01
       H  3.47376e+00 -1.55031e+00 -3.48460e-01
       H  8.14400e-02 -1.36290e-01  8.53000e-03
7
# CELL(abcABC):   13.38377    13.38377    13.38377    90.00000    90.00000    90.00000  Step:           1  Bead:       6 positions{angstrom}  cell{angstrom}
       O  5.54810e-01 -9.55480e-01 -1.98800e-01
       O  2.93312e+00 -8.23518e-01 -6.64763e-03
       H  1.68754e-01 -1.34488e+00 -9.96692e-01
       H  1.74588e+00 -9.04260e-01 -1.15740e-01
       H  3.26076e+00 -5.77430e-01  8.70956e-01
       H  3.47376e+00 -1.55031e+00 -3.48453e-01
       H  8.14400e-02 -1.36290e-01  8.53000e-03
7
# CELL(abcABC):   13.38377    13.38377    13.38377    90.00000    90.00000    90.00000  Step:           2  Bead:       6 positions{angstrom}  cell{angstrom}
       O  5.54810e-01 -9.55480e-01 -1.98800e-01
       O  2.93314e+00 -8.23485e-01 -6.64416e-03
       H  1.68759e-01 -1.34487e+00 -9.96696e-01
       H  1.74588e+00 -9.04260e-01 -1.15740e-01
       H  3.26077e+00 -5.77445e-01  8.70949e-01
       H  3.47375e+00 -1.55032e+00 -3.48442e-01
       H  8.14400e-02 -1.36290e-01  8.53000e-03
7
# CELL(abcABC):   13.38377    13.38377    13.38377    90.00000    90.00000    90.00000  Step:           3  Bead:       6 positions{angstrom}  cell{angstrom}
       O  5.54810e-01 -9.55480e-01 -1.98800e-01
       O  2.93317e+00 -8.23440e-01 -6.63978e-03
       H  1.68766e-01 -1.34486e+00 -9.96700e-01
       H  1.74588e+00 -9.04260e-01 -1.15740e-01
       H  3.26078e+00 -5.77464e-01  8.70941e-01
       H  3.47374e+00 -1.55033e+00 -3.48427e-01
       H  8.14400e-02 -1.36290e-01  8.53000e-03
7
# CELL(abcABC):   13.38377    13.38377    13.38377    90.00000    90.00000    90.00000  Step:           4  Bead:       6 positions{angstrom}  cell{angstrom}
       O  5.54810e-01 -9.55480e-01 -1.98800e-01
       O  2.93321e+00 -8.23385e-01 -6.63473e-03
       H  1.68775e-01 -1.34485e+00 -9.96706e-01
       H  1.74588e+00 -9.04260e-01 -1.15740e-01
       H  3.26080e+00 -5.77489e-01  8.70930e-01
       H  3.47373e+00 -1.55034e+00 -3.48409e-01
       H  8.14400e-02 -1.36290e-01  8.53000e-03
7
# CELL(abcABC):   13.38377    13.38377    13.38377    90.00000    90.00000    90.00000  Step:           5  Bead:       6 positions{angstrom}  cell{angstrom}
       O  5.54810e-01 -9.55480e-01 -1.98800e-01
       O  2.93325e+00 -8.23317e-01 -6.62933e-03
       H  1.68786e-01 -1.34483e+00 -9.96713e-01
       H  1.74588e+00 -9.04260e-01 -1.15740e-01
       H  3.26082e+00 -5.77519e-01  8.70918e-01
       H  3.47372e+00 -1.55035e+00 -3.48386e-01
       H  8.14400e-02 -1.36290e-01  8.53000e-03
7
# CELL(abcABC):   13.38377    13.38377    13.38377    90.00000    90.00000    90.00000  Step:           6  Bead:       6 positions{angstrom}  cell{angstrom}
       O  5.54810e-01 -9.55480e-01 -1.98800e-01
       O  2.93330e+00 -8.23229e-01 -6.62345e-03
       H  1.68801e-01 -1.34480e+00 -9.96723e-01
       H  1.74588e+00 -9.04260e-01 -1.15740e-01
       H  3.26084e+00 -5.77559e-01  8.70903e-01
       H  3.47370e+00 -1.55036e+00 -3.48356e-01
       H  8.14400e-02 -1.36290e-01  8.53000e-03
7
# CELL(abcABC):   13.38377    13.38377    13.38377    90.00000    90.00000    90.00000  Step:           7  Bead:       6 positions{angstrom}  cell{angstrom}
       O  5.54810e-01 -9.55480e-01 -1.98800e-01
       O  2.93337e+00 -8.23113e-01 -6.61788e-03
       H  1.68820e-01 -1.34477e+00 -9.96736e-01
       H  1.74588e+00 -9.04260e-01 -1.15740e-01
       H  3.26088e+00 -5.77611e-01  8.70885e-01
       H  3.47367e+00 -1.55038e+00 -3.48316e-01
       H  8.14400e-02 -1.36290e-01  8.53000e-03
7
# CELL(abcABC):   13.38377    13.38377    13.38377    90.00000    90.00000    90.00000  Step:           8  Bead:       6 positions{angstrom}  cell{angstrom}
       O  5.54810e-01 -9.55480e-01 -1.98800e-01
       O  2.93347e+00 -8.22963e-01 -6.61432e-03
       H  1.68846e-01 -1.34473e+00 -9.96754e-01
       H  1.74588e+00 -9.04260e-01 -1.15740e-01
       H  3.26093e+00 -5.77679e-01  8.70865e-01
       H  3.47364e+00 -1.55040e+00 -3.48263e-01
       H  8.14400e-02 -1.36290e-01  8.53000e-03
7
# CELL(abcABC):   13.38377    13.38377    13.38377    90.00000    90.00000    90.00000  Step:           9  Bead:       6 positions{angstrom}  cell{angstrom}
       O  5.54810e-01 -9.55480e-01 -1.98800e-01
       O  2.93359e+00 -8.22769e-01 -6.61573e-03
       H  1.68879e-01 -1.34467e+00 -9.96777e-01
       H  1.74588e+00 -9.04260e-01 -1.15740e-01
       H  3.26100e+00 -5.77766e-01  8.70843e-01
       H  3.47360e+00 -1.55043e+00 -3.48192e-01
       H  8.14400e-02 -1.36290e-01  8.53000e-03
7
# CELL(abcABC):   13.38377    13.38377    13.38377    90.00000    90.00000    90.00000  Step:          10  Bead:       6 positions{angstrom}  cell{angstrom}
       O  5.54810e-01 -9.55480e-01 -1.98800e-01
       O  2.93374e+00 -8.22527e-01 -6.62658e-03
       H  1.68921e-01 -1.34460e+00 -9.96809e-01
       H  1.74588e+00 -9.04260e-01 -1.15740e-01
       H  3.26109e+00 -5.77876e-01  8.70823e-01
       H  3.47354e+00 -1.55046e+00 -3.48100e-01
       H  8.14400e-02 -1.36290e-01  8.53000e-03
