7
# CELL(abcABC):   13.38377    13.38377    13.38377    90.00000    90.00000    90.00000  Step:           0  Bead:       1 positions{angstrom}  cell{angstrom}
       O  5.54810e-01 -9.55480e-01 -1.98800e-01
       O  2.92332e+00 -8.16620e-01  6.83600e-02
       H  1.68750e-01 -1.34489e+00 -9.96690e-01
       H  1.74588e+00 -9.04260e-01 -1.15740e-01
       H  3.26677e+00 -1.29224e+00  8.39050e-01
       H  3.51570e+00 -9.70180e-01 -6.81860e-01
       H  8.14400e-02 -1.36290e-01  8.53000e-03
7
# CELL(abcABC):   13.38377    13.38377    13.38377    90.00000    90.00000    90.00000  Step:           1  Bead:       1 positions{angstrom}  cell{angstrom}
       O  5.54810e-01 -9.55480e-01 -1.98800e-01
       O  2.92329e+00 -8.16687e-01  6.86319e-02
       H  1.68749e-01 -1.34489e+00 -9.96689e-01
       H  1.74588e+00 -9.04260e-01 -1.15740e-01
       H  3.26691e+00 -1.29467e+00  8.38045e-01
       H  3.51575e+00 -9.67754e-01 -6.82288e-01
       H  8.14400e-02 -1.36290e-01  8.53000e-03
7
# CELL(abcABC):   13.38377    13.38377    13.38377    90.00000    90.00000    90.00000  Step:           2  Bead:       1 positions{angstrom}  cell{angstrom}
       O  5.54810e-01 -9.55480e-01 -1.98800e-01
       O  2.92324e+00 -8.16788e-01  6.90345e-02
       H  1.68748e-01 -1.34489e+00 -9.96688e-01
       H  1.74588e+00 -9.04260e-01 -1.15740e-01
       H  3.26711e+00 -1.29827e+00  8.36557e-01
       H  3.51582e+00 -9.64162e-01 -6.82920e-01
       H  8.14400e-02 -1.36290e-01  8.53000e-03
7
# CELL(abcABC):   13.38377    13.38377    13.38377    90.00000    90.00000    90.00000  Step:           3  Bead:       1 positions{angstrom}  cell{angstrom}
       O  5.54810e-01 -9.55480e-01 -1.98800e-01
       O  2.92318e+00 -8.16920e-01  6.95600e-02
       H  1.68746e-01 -1.34489e+00 -9.96687e-01
       H  1.74588e+00 -9.04260e-01 -1.15740e-01
       H  3.26737e+00 -1.30296e+00  8.34612e-01
       H  3.51592e+00 -9.59474e-01 -6.83743e-01
       H  8.14400e-02 -1.36290e-01  8.53000e-03
7
# CELL(abcABC):   13.38377    13.38377    13.38377    90.00000    90.00000    90.00000  Step:           4  Bead:       1 positions{angstrom}  cell{angstrom}
       O  5.54810e-01 -9.55480e-01 -1.98800e-01
       O  2.92311e+00 -8.17084e-01  7.01984e-02
       H  1.68744e-01 -1.34489e+00 -9.96685e-01
       H  1.74588e+00 -9.04260e-01 -1.15740e-01
       H  3.26769e+00 -1.30866e+00  8.32246e-01
       H  3.51603e+00 -9.53784e-01 -6.84736e-01
       H  8.14400e-02 -1.36290e-01  8.53000e-03
7
# CELL(abcABC):   13.38377    13.38377    13.38377    90.00000    90.00000    90.00000  Step:           5  Bead:       1 positions{angstrom}  cell{angstrom}
       O  5.54810e-01 -9.55480e-01 -1.98800e-01
       O  2.92304e+00 -8.17279e-01  7.09371e-02
       H  1.68742e-01 -1.34489e+00 -9.96682e-01
       H  1.74588e+00 -9.04260e-01 -1.15740e-01
       H  3.26805e+00 -1.31524e+00  8.29501e-01
       H  3.51615e+00 -9.47205e-01 -6.85875e-01
       H  8.14400e-02 -1.36290e-01  8.53000e-03
7
# CELL(abcABC):   13.38377    13.38377    13.38377    90.00000    90.00000    90.00000  Step:           6  Bead:       1 positions{angstrom}  cell{angstrom}
       O  5.54810e-01 -9.55480e-01 -1.98800e-01
       O  2.92296e+00 -8.17529e-01  7.18528e-02
       H  1.68738e-01 -1.34490e+00 -9.96679e-01
       H  1.74588e+00 -9.04260e-01 -1.15740e-01
       H  3.26850e+00 -1.32337e+00  8.26085e-01
       H  3.51630e+00 -9.39058e-01 -6.87269e-01
       H  8.14400e-02 -1.36290e-01  8.53000e-03
7
# CELL(abcABC):   13.38377    13.38377    13.38377    90.00000    90.00000    90.00000  Step:           7  Bead:       1 positions{angstrom}  cell{angstrom}
       O  5.54810e-01 -9.55480e-01 -1.98800e-01
       O  2.92289e+00 -8.17849e-01  7.29560e-02
       H  1.68733e-01 -1.34490e+00 -9.96674e-01
       H  1.74588e+00 -9.04260e-01 -1.15740e-01
       H  3.26903e+00 -1.33314e+00  8.21943e-01
       H  3.51645e+00 -9.29257e-01 -6.88914e-01
       H  8.14400e-02 -1.36290e-01  8.53000e-03
7
# CELL(abcABC):   13.38377    13.38377    13.38377    90.00000    90.00000    90.00000  Step:           8  Bead:       1 positions{angstrom}  cell{angstrom}
       O  5.54810e-01 -9.55480e-01 -1.98800e-01
       O  2.92286e+00 -8.18252e-01  7.42385e-02
       H  1.68727e-01 -1.34490e+00 -9.96669e-01
       H  1.74588e+00 -9.04260e-01 -1.15740e-01
       H  3.26963e+00 -1.34444e+00  8.17078e-01
       H  3.51660e+00 -9.17886e-01 -6.90764e-01
       H  8.14400e-02 -1.36290e-01  8.53000e-03
7
# CELL(abcABC):   13.38377    13.38377    13.38377    90.00000    90.00000    90.00000  Step:           9  Bead:       1 positions{angstrom}  cell{angstrom}
       O  5.54810e-01 -9.55480e-01 -1.98800e-01
       O  2.92291e+00 -8.18755e-01  7.56550e-02
       H  1.68719e-01 -1.34491e+00 -9.96661e-01
       H  1.74588e+00 -9.04260e-01 -1.15740e-01
       H  3.27026e+00 -1.35683e+00  8.11613e-01
       H  3.51671e+00 -9.05358e-01 -6.92697e-01
       H  8.14400e-02 -1.36290e-01  8.53000e-03
7
# CELL(abcABC):   13.38377    13.38377    13.38377    90.00000    90.00000    90.00000  Step:          10  Bead:       1 positions{angstrom}  cell{angstrom}
       O  5.54810e-01 -9.55480e-01 -1.98800e-01
       O  2.92310e+00 -8.19366e-01  7.71130e-02
       H  1.68708e-01 -1.34491e+00 -9.96650e-01
       H  1.74588e+00 -9.04260e-01 -1.15740e-01
       H  3.27086e+00 -1.36944e+00  8.05837e-01
       H  3.51672e+00 -8.92505e-01 -6.94516e-01
       H  8.14400e-02 -1.36290e-01  8.53000e-03
