7
# CELL(abcABC):   13.38377    13.38377    13.38377    90.00000    90.00000    90.00000  Step:           0  Bead:       3 positions{angstrom}  cell{angstrom}
       O  5.54810e-01 -9.55480e-01 -1.98800e-01
       O  2.92728e+00 -8.11320e-01  3.78600e-02
       H  1.68750e-01 -1.34489e+00 -9.96690e-01
       H  1.74588e+00 -9.04260e-01 -1.15740e-01
       H  3.25457e+00 -1.01198e+00  9.27100e-01
       H  3.50712e+00 -1.23616e+00 -6.10700e-01
       H  8.14400e-02 -1.36290e-01  8.53000e-03
7
# CELL(abcABC):   13.38377    13.38377    13.38377    90.00000    90.00000    90.00000  Step:           1  Bead:       3 positions{angstrom}  cell{angstrom}
       O  5.54810e-01 -9.55480e-01 -1.98800e-01
       O  2.92729e+00 -8.11309e-01  3.78660e-02
       H  1.68750e-01 -1.34489e+00 -9.96690e-01
       H  1.74588e+00 -9.04260e-01 -1.15740e-01
       H  3.25457e+00 -1.01198e+00  9.27095e-01
       H  3.50712e+00 -1.23616e+00 -6.10697e-01
       H  8.14400e-02 -1.36290e-01  8.53000e-03
7
# CELL(abcABC):   13.38377    13.38377    13.38377    90.00000    90.00000    90.00000  Step:           2  Bead:       3 positions{angstrom}  cell{angstrom}
       O  5.54810e-01 -9.55480e-01 -1.98800e-01
       O  2.92730e+00 -8.11292e-01  3.78750e-02
       H  1.68749e-01 -1.34489e+00 -9.96689e-01
       H  1.74588e+00 -9.04260e-01 -1.15740e-01
       H  3.25457e+00 -1.01199e+00  9.27088e-01
       H  3.50712e+00 -1.23617e+00 -6.10692e-01
       H  8.14400e-02 -1.36290e-01  8.53000e-03
7
# CELL(abcABC):   13.38377    13.38377    13.38377    90.00000    90.00000    90.00000  Step:           3  Bead:       3 positions{angstrom}  cell{angstrom}
       O  5.54810e-01 -9.55480e-01 -1.98800e-01
       O  2.92731e+00 -8.11269e-01  3.78870e-02
       H  1.68748e-01 -1.34488e+00 -9.96688e-01
       H  1.74588e+00 -9.04260e-01 -1.15740e-01
       H  3.25458e+00 -1.01200e+00  9.27078e-01
       H  3.50712e+00 -1.23618e+00 -6.10685e-01
       H  8.14400e-02 -1.36290e-01  8.53000e-03
7
# CELL(abcABC):   13.38377    13.38377    13.38377    90.00000    90.00000    90.00000  Step:           4  Bead:       3 positions{angstrom}  cell{angstrom}
       O  5.54810e-01 -9.55480e-01 -1.98800e-01
       O  2.92732e+00 -8.11241e-01  3.79020e-02
       H  1.68747e-01 -1.34488e+00 -9.96687e-01
       H  1.74588e+00 -9.04260e-01 -1.15740e-01
       H  3.25458e+00 -1.01201e+00  9.27066e-01
       H  3.50712e+00 -1.23618e+00 -6.10677e-01
       H  8.14400e-02 -1.36290e-01  8.53000e-03
7
# CELL(abcABC):   13.38377    13.38377    13.38377    90.00000    90.00000    90.00000  Step:           5  Bead:       3 positions{angstrom}  cell{angstrom}
       O  5.54810e-01 -9.55480e-01 -1.98800e-01
       O  2.92734e+00 -8.11206e-01  3.79204e-02
       H  1.68746e-01 -1.34487e+00 -9.96686e-01
       H  1.74588e+00 -9.04260e-01 -1.15740e-01
       H  3.25459e+00 -1.01203e+00  9.27052e-01
       H  3.50712e+00 -1.23619e+00 -6.10671e-01
       H  8.14400e-02 -1.36290e-01  8.53000e-03
7
# CELL(abcABC):   13.38377    13.38377    13.38377    90.00000    90.00000    90.00000  Step:           6  Bead:       3 positions{angstrom}  cell{angstrom}
       O  5.54810e-01 -9.55480e-01 -1.98800e-01
       O  2.92737e+00 -8.11160e-01  3.79458e-02
       H  1.68745e-01 -1.34487e+00 -9.96685e-01
       H  1.74588e+00 -9.04260e-01 -1.15740e-01
       H  3.25459e+00 -1.01208e+00  9.27032e-01
       H  3.50712e+00 -1.23618e+00 -6.10669e-01
       H  8.14400e-02 -1.36290e-01  8.53000e-03
7
# CELL(abcABC):   13.38377    13.38377    13.38377    90.00000    90.00000    90.00000  Step:           7  Bead:       3 positions{angstrom}  cell{angstrom}
       O  5.54810e-01 -9.55480e-01 -1.98800e-01
       O  2.92740e+00 -8.11099e-01  3.79823e-02
       H  1.68743e-01 -1.34486e+00 -9.96683e-01
       H  1.74588e+00 -9.04260e-01 -1.15740e-01
       H  3.25461e+00 -1.01218e+00  9.27005e-01
       H  3.50712e+00 -1.23613e+00 -6.10686e-01
       H  8.14400e-02 -1.36290e-01  8.53000e-03
7
# CELL(abcABC):   13.38377    13.38377    13.38377    90.00000    90.00000    90.00000  Step:           8  Bead:       3 positions{angstrom}  cell{angstrom}
       O  5.54810e-01 -9.55480e-01 -1.98800e-01
       O  2.92744e+00 -8.11017e-01  3.80389e-02
       H  1.68740e-01 -1.34485e+00 -9.96681e-01
       H  1.74588e+00 -9.04260e-01 -1.15740e-01
       H  3.25462e+00 -1.01241e+00  9.26967e-01
       H  3.50713e+00 -1.23599e+00 -6.10754e-01
       H  8.14400e-02 -1.36290e-01  8.53000e-03
7
# CELL(abcABC):   13.38377    13.38377    13.38377    90.00000    90.00000    90.00000  Step:           9  Bead:       3 positions{angstrom}  cell{angstrom}
       O  5.54810e-01 -9.55480e-01 -1.98800e-01
       O  2.92748e+00 -8.10909e-01  3.81331e-02
       H  1.68736e-01 -1.34483e+00 -9.96679e-01
       H  1.74588e+00 -9.04260e-01 -1.15740e-01
       H  3.25464e+00 -1.01294e+00  9.26908e-01
       H  3.50715e+00 -1.23562e+00 -6.10947e-01
       H  8.14400e-02 -1.36290e-01  8.53000e-03
7
# CELL(abcABC):   13.38377    13.38377    13.38377    90.00000    90.00000    90.00000  Step:          10  Bead:       3 positions{angstrom}  cell{angstrom}
       O  5.54810e-01 -9.55480e-01 -1.98800e-01
       O  2.92754e+00 -8.10767e-01  3.82948e-02
       H  1.68732e-01 -1.34482e+00 -9.96676e-01
       H  1.74588e+00 -9.04260e-01 -1.15740e-01
       H  3.25468e+00 -1.01405e+00  9.26816e-01
       H  3.50721e+00 -1.23479e+00 -6.11397e-01
       H  8.14400e-02 -1.36290e-01  8.53000e-03
