7
# CELL(abcABC):   13.38377    13.38377    13.38377    90.00000    90.00000    90.00000  Step:           0  Bead:       9 positions{angstrom}  cell{angstrom}
       O  5.54810e-01 -9.55480e-01 -1.98800e-01
       O  2.93743e+00 -8.56560e-01 -3.91400e-02
       H  1.68750e-01 -1.34489e+00 -9.96690e-01
       H  1.74588e+00 -9.04260e-01 -1.15740e-01
       H  3.29426e+00 -2.29310e-01  6.06890e-01
       H  3.42424e+00 -1.69020e+00  3.43700e-02
       H  8.14400e-02 -1.36290e-01  8.53000e-03
7
# CELL(abcABC):   13.38377    13.38377    13.38377    90.00000    90.00000    90.00000  Step:           1  Bead:       9 positions{angstrom}  cell{angstrom}
       O  5.54810e-01 -9.55480e-01 -1.98800e-01
       O  2.93744e+00 -8.56533e-01 -3.91443e-02
       H  1.68759e-01 -1.34488e+00 -9.96696e-01
       H  1.74588e+00 -9.04260e-01 -1.15740e-01
       H  3.29427e+00 -2.29322e-01  6.06889e-01
       H  3.42423e+00 -1.69020e+00  3.43773e-02
       H  8.14400e-02 -1.36290e-01  8.53000e-03
7
# CELL(abcABC):   13.38377    13.38377    13.38377    90.00000    90.00000    90.00000  Step:           2  Bead:       9 positions{angstrom}  cell{angstrom}
       O  5.54810e-01 -9.55480e-01 -1.98800e-01
       O  2.93747e+00 -8.56494e-01 -3.91508e-02
       H  1.68774e-01 -1.34487e+00 -9.96704e-01
       H  1.74588e+00 -9.04260e-01 -1.15740e-01
       H  3.29429e+00 -2.29339e-01  6.06888e-01
       H  3.42422e+00 -1.69021e+00  3.43882e-02
       H  8.14400e-02 -1.36290e-01  8.53000e-03
7
# CELL(abcABC):   13.38377    13.38377    13.38377    90.00000    90.00000    90.00000  Step:           3  Bead:       9 positions{angstrom}  cell{angstrom}
       O  5.54810e-01 -9.55480e-01 -1.98800e-01
       O  2.93749e+00 -8.56441e-01 -3.91598e-02
       H  1.68793e-01 -1.34486e+00 -9.96715e-01
       H  1.74588e+00 -9.04260e-01 -1.15740e-01
       H  3.29431e+00 -2.29363e-01  6.06887e-01
       H  3.42420e+00 -1.69021e+00  3.44029e-02
       H  8.14400e-02 -1.36290e-01  8.53000e-03
7
# CELL(abcABC):   13.38377    13.38377    13.38377    90.00000    90.00000    90.00000  Step:           4  Bead:       9 positions{angstrom}  cell{angstrom}
       O  5.54810e-01 -9.55480e-01 -1.98800e-01
       O  2.93753e+00 -8.56375e-01 -3.91716e-02
       H  1.68817e-01 -1.34484e+00 -9.96730e-01
       H  1.74588e+00 -9.04260e-01 -1.15740e-01
       H  3.29434e+00 -2.29392e-01  6.06885e-01
       H  3.42417e+00 -1.69021e+00  3.44213e-02
       H  8.14400e-02 -1.36290e-01  8.53000e-03
7
# CELL(abcABC):   13.38377    13.38377    13.38377    90.00000    90.00000    90.00000  Step:           5  Bead:       9 positions{angstrom}  cell{angstrom}
       O  5.54810e-01 -9.55480e-01 -1.98800e-01
       O  2.93757e+00 -8.56295e-01 -3.91864e-02
       H  1.68846e-01 -1.34482e+00 -9.96747e-01
       H  1.74588e+00 -9.04260e-01 -1.15740e-01
       H  3.29438e+00 -2.29426e-01  6.06885e-01
       H  3.42414e+00 -1.69022e+00  3.44437e-02
       H  8.14400e-02 -1.36290e-01  8.53000e-03
7
# CELL(abcABC):   13.38377    13.38377    13.38377    90.00000    90.00000    90.00000  Step:           6  Bead:       9 positions{angstrom}  cell{angstrom}
       O  5.54810e-01 -9.55480e-01 -1.98800e-01
       O  2.93763e+00 -8.56192e-01 -3.92072e-02
       H  1.68885e-01 -1.34478e+00 -9.96770e-01
       H  1.74588e+00 -9.04260e-01 -1.15740e-01
       H  3.29443e+00 -2.29471e-01  6.06884e-01
       H  3.42410e+00 -1.69023e+00  3.44733e-02
       H  8.14400e-02 -1.36290e-01  8.53000e-03
7
# CELL(abcABC):   13.38377    13.38377    13.38377    90.00000    90.00000    90.00000  Step:           7  Bead:       9 positions{angstrom}  cell{angstrom}
       O  5.54810e-01 -9.55480e-01 -1.98800e-01
       O  2.93770e+00 -8.56059e-01 -3.92365e-02
       H  1.68936e-01 -1.34474e+00 -9.96802e-01
       H  1.74588e+00 -9.04260e-01 -1.15740e-01
       H  3.29449e+00 -2.29529e-01  6.06886e-01
       H  3.42405e+00 -1.69023e+00  3.45123e-02
       H  8.14400e-02 -1.36290e-01  8.53000e-03
7
# CELL(abcABC):   13.38377    13.38377    13.38377    90.00000    90.00000    90.00000  Step:           8  Bead:       9 positions{angstrom}  cell{angstrom}
       O  5.54810e-01 -9.55480e-01 -1.98800e-01
       O  2.93780e+00 -8.55890e-01 -3.92782e-02
       H  1.69003e-01 -1.34469e+00 -9.96843e-01
       H  1.74588e+00 -9.04260e-01 -1.15740e-01
       H  3.29458e+00 -2.29602e-01  6.06892e-01
       H  3.42397e+00 -1.69024e+00  3.45635e-02
       H  8.14400e-02 -1.36290e-01  8.53000e-03
7
# CELL(abcABC):   13.38377    13.38377    13.38377    90.00000    90.00000    90.00000  Step:           9  Bead:       9 positions{angstrom}  cell{angstrom}
       O  5.54810e-01 -9.55480e-01 -1.98800e-01
       O  2.93792e+00 -8.55677e-01 -3.93377e-02
       H  1.69091e-01 -1.34462e+00 -9.96899e-01
       H  1.74588e+00 -9.04260e-01 -1.15740e-01
       H  3.29470e+00 -2.29693e-01  6.06904e-01
       H  3.42388e+00 -1.69024e+00  3.46301e-02
       H  8.14400e-02 -1.36290e-01  8.53000e-03
7
# CELL(abcABC):   13.38377    13.38377    13.38377    90.00000    90.00000    90.00000  Step:          10  Bead:       9 positions{angstrom}  cell{angstrom}
       O  5.54810e-01 -9.55480e-01 -1.98800e-01
       O  2.93808e+00 -8.55418e-01 -3.94214e-02
       H  1.69204e-01 -1.34453e+00 -9.96971e-01
       H  1.74588e+00 -9.04260e-01 -1.15740e-01
       H  3.29485e+00 -2.29803e-01  6.06928e-01
       H  3.42375e+00 -1.69024e+00  3.47148e-02
       H  8.14400e-02 -1.36290e-01  8.53000e-03
