7
# CELL(abcABC):   13.38377    13.38377    13.38377    90.00000    90.00000    90.00000  Step:           0  Bead:      13 positions{angstrom}  cell{angstrom}
       O  5.54810e-01 -9.55480e-01 -1.98800e-01
       O  2.93894e+00 -9.17150e-01 -4.94700e-02
       H  1.68750e-01 -1.34489e+00 -9.96690e-01
       H  1.74588e+00 -9.04260e-01 -1.15740e-01
       H  3.36514e+00 -5.42400e-02  5.94700e-02
       H  3.35618e+00 -1.54903e+00  5.53820e-01
       H  8.14400e-02 -1.36290e-01  8.53000e-03
7
# CELL(abcABC):   13.38377    13.38377    13.38377    90.00000    90.00000    90.00000  Step:           1  Bead:      13 positions{angstrom}  cell{angstrom}
       O  5.54810e-01 -9.55480e-01 -1.98800e-01
       O  2.93895e+00 -9.17121e-01 -4.94832e-02
       H  1.68764e-01 -1.34489e+00 -9.96698e-01
       H  1.74588e+00 -9.04260e-01 -1.15740e-01
       H  3.36515e+00 -5.42500e-02  5.94718e-02
       H  3.35617e+00 -1.54903e+00  5.53825e-01
       H  8.14400e-02 -1.36290e-01  8.53000e-03
7
# CELL(abcABC):   13.38377    13.38377    13.38377    90.00000    90.00000    90.00000  Step:           2  Bead:      13 positions{angstrom}  cell{angstrom}
       O  5.54810e-01 -9.55480e-01 -1.98800e-01
       O  2.93895e+00 -9.17080e-01 -4.95028e-02
       H  1.68785e-01 -1.34489e+00 -9.96709e-01
       H  1.74588e+00 -9.04260e-01 -1.15740e-01
       H  3.36518e+00 -5.42641e-02  5.94579e-02
       H  3.35615e+00 -1.54903e+00  5.53846e-01
       H  8.14400e-02 -1.36290e-01  8.53000e-03
7
# CELL(abcABC):   13.38377    13.38377    13.38377    90.00000    90.00000    90.00000  Step:           3  Bead:      13 positions{angstrom}  cell{angstrom}
       O  5.54810e-01 -9.55480e-01 -1.98800e-01
       O  2.93896e+00 -9.17029e-01 -4.95285e-02
       H  1.68812e-01 -1.34489e+00 -9.96724e-01
       H  1.74588e+00 -9.04260e-01 -1.15740e-01
       H  3.36521e+00 -5.42810e-02  5.94018e-02
       H  3.35611e+00 -1.54901e+00  5.53903e-01
       H  8.14400e-02 -1.36290e-01  8.53000e-03
7
# CELL(abcABC):   13.38377    13.38377    13.38377    90.00000    90.00000    90.00000  Step:           4  Bead:      13 positions{angstrom}  cell{angstrom}
       O  5.54810e-01 -9.55480e-01 -1.98800e-01
       O  2.93898e+00 -9.16973e-01 -4.95600e-02
       H  1.68847e-01 -1.34488e+00 -9.96744e-01
       H  1.74588e+00 -9.04260e-01 -1.15740e-01
       H  3.36527e+00 -5.42986e-02  5.92664e-02
       H  3.35606e+00 -1.54895e+00  5.54029e-01
       H  8.14400e-02 -1.36290e-01  8.53000e-03
7
# CELL(abcABC):   13.38377    13.38377    13.38377    90.00000    90.00000    90.00000  Step:           5  Bead:      13 positions{angstrom}  cell{angstrom}
       O  5.54810e-01 -9.55480e-01 -1.98800e-01
       O  2.93899e+00 -9.16917e-01 -4.95968e-02
       H  1.68890e-01 -1.34488e+00 -9.96767e-01
       H  1.74588e+00 -9.04260e-01 -1.15740e-01
       H  3.36535e+00 -5.43147e-02  5.90023e-02
       H  3.35599e+00 -1.54884e+00  5.54261e-01
       H  8.14400e-02 -1.36290e-01  8.53000e-03
7
# CELL(abcABC):   13.38377    13.38377    13.38377    90.00000    90.00000    90.00000  Step:           6  Bead:      13 positions{angstrom}  cell{angstrom}
       O  5.54810e-01 -9.55480e-01 -1.98800e-01
       O  2.93901e+00 -9.16863e-01 -4.96429e-02
       H  1.68947e-01 -1.34488e+00 -9.96798e-01
       H  1.74588e+00 -9.04260e-01 -1.15740e-01
       H  3.36547e+00 -5.43270e-02  5.84891e-02
       H  3.35588e+00 -1.54860e+00  5.54700e-01
       H  8.14400e-02 -1.36290e-01  8.53000e-03
7
# CELL(abcABC):   13.38377    13.38377    13.38377    90.00000    90.00000    90.00000  Step:           7  Bead:      13 positions{angstrom}  cell{angstrom}
       O  5.54810e-01 -9.55480e-01 -1.98800e-01
       O  2.93904e+00 -9.16825e-01 -4.96994e-02
       H  1.69022e-01 -1.34487e+00 -9.96840e-01
       H  1.74588e+00 -9.04260e-01 -1.15740e-01
       H  3.36567e+00 -5.43293e-02  5.75519e-02
       H  3.35570e+00 -1.54817e+00  5.55489e-01
       H  8.14400e-02 -1.36290e-01  8.53000e-03
7
# CELL(abcABC):   13.38377    13.38377    13.38377    90.00000    90.00000    90.00000  Step:           8  Bead:      13 positions{angstrom}  cell{angstrom}
       O  5.54810e-01 -9.55480e-01 -1.98800e-01
       O  2.93908e+00 -9.16824e-01 -4.97662e-02
       H  1.69121e-01 -1.34486e+00 -9.96894e-01
       H  1.74588e+00 -9.04260e-01 -1.15740e-01
       H  3.36599e+00 -5.43113e-02  5.59212e-02
       H  3.35543e+00 -1.54740e+00  5.56845e-01
       H  8.14400e-02 -1.36290e-01  8.53000e-03
7
# CELL(abcABC):   13.38377    13.38377    13.38377    90.00000    90.00000    90.00000  Step:           9  Bead:      13 positions{angstrom}  cell{angstrom}
       O  5.54810e-01 -9.55480e-01 -1.98800e-01
       O  2.93913e+00 -9.16896e-01 -4.98415e-02
       H  1.69251e-01 -1.34485e+00 -9.96966e-01
       H  1.74588e+00 -9.04260e-01 -1.15740e-01
       H  3.36649e+00 -5.42594e-02  5.32389e-02
       H  3.35500e+00 -1.54613e+00  5.59057e-01
       H  8.14400e-02 -1.36290e-01  8.53000e-03
7
# CELL(abcABC):   13.38377    13.38377    13.38377    90.00000    90.00000    90.00000  Step:          10  Bead:      13 positions{angstrom}  cell{angstrom}
       O  5.54810e-01 -9.55480e-01 -1.98800e-01
       O  2.93919e+00 -9.17073e-01 -4.99195e-02
       H  1.69418e-01 -1.34484e+00 -9.97058e-01
       H  1.74588e+00 -9.04260e-01 -1.15740e-01
       H  3.36720e+00 -5.41627e-02  4.91706e-02
       H  3.35437e+00 -1.54418e+00  5.62391e-01
       H  8.14400e-02 -1.36290e-01  8.53000e-03
