LAMMPS Description
 
         288  atoms
         192  bonds
         96   angles
 
           2  atom types
           1  bond types
           1  angle types
         0 13.555191763 xlo xhi
         0 15.652162297 ylo yhi
         0  14.75700612 zlo zhi
         0.1 0.1 0.1 xy xz yz

Masses
 
  1 15.9994
  2  1.0080
 
Atoms
 
 1 1 1 -1.1128      7.9762880999409189      9.4014681643448785      9.0396697052504997
 2 1 2 0.5564       8.5461167041854864      9.6986540859880037       9.734606385696754
 3 1 2 0.5564       7.0972718349099475       9.597316650100078      9.4086120566920712
 4 2 1 -1.1128      10.122355695213818       10.78042989114857      9.8976935103249488
 5 2 2 0.5564       10.330560468843602      10.759056423600198      10.815980016177035
 6 2 2 0.5564       10.291946407764012      11.719772358222485      9.6836889544636673
 7 3 1 -1.1128      8.1271036050482746      9.8230107305502088      12.938827315435509
 8 3 2 0.5564       7.3622837821301701      10.055689950184258      12.712662267267676
 9 3 2 0.5564       7.9279213028643838      9.4061778415219148      13.918350208133289
 10 4 1 -1.1128     10.786287882873266      10.482037445464584      12.571244949425958
 11 4 2 0.5564      9.8104216047028281      10.322448182200459      12.572737229160705
 12 4 2 0.5564      10.962101719423679      11.392703799479667       12.91290821564548
 13 5 1 -1.1128     10.341175763694318      13.130537635401446      8.6216197086371285
 14 5 2 0.5564       11.09658152403046      13.657042501389387      8.7971477894936534
 15 5 2 0.5564      10.144575846299634      13.236277825684084      7.6691536467328199
 16 6 1 -1.1128      7.786472234390013      13.755993348056139      9.8952275445221414
 17 6 2 0.5564      8.4844305167105265      13.544237795341193      9.4529041892446521
 18 6 2 0.5564      7.8594457717735375      14.024661909803701      10.698576760166095
 19 7 1 -1.1128     10.597302825543478      13.087780116760484      13.352728562715399
 20 7 2 0.5564       11.30333106033026      13.707922890217709      12.907447106828963
 21 7 2 0.5564      10.610278250754819      13.045117850017485      14.315364881436054
 22 8 1 -1.1128     8.1366817125656201      14.166904744094428      12.439612118213837
 23 8 2 0.5564      8.9258807295900251      13.950148466736449      12.853486906633183
 24 8 2 0.5564       7.496747711420622      13.571225833097248      12.941997086928817
 25 9 1 -1.1128      12.19792101067811      9.3227265953625107        8.52986038026655
 26 9 2 0.5564      11.475673494377151      9.6982836619403709       8.968072028615321
 27 9 2 0.5564      11.961373505632359       9.302617861348196       7.541833609789558
 28 10 1 -1.1128    1.1342966433426895      10.294613460906962      9.4605772588027452
 29 10 2 0.5564    0.18310007756733609      10.013038266985475      9.1151303755252648
 30 10 2 0.5564     1.0537188294384896      10.631281294255558      10.435242304704436
 31 11 1 -1.1128    12.618500474359596      8.8293217639165533      13.690978635924598
 32 11 2 0.5564       11.9775716200581      9.6307606498291491      13.585455408298429
 33 11 2 0.5564     12.735819062016791      8.8007461945277914      14.575187716926163
 34 12 1 -1.1128   0.81799684084174829       10.54108833042925      12.150146892077787
 35 12 2 0.5564    0.07527334154210813      9.8943967363010223      12.608430232036111
 36 12 2 0.5564     1.6467518543811543      10.127552215424885      12.582230668324305
 37 13 1 -1.1128    1.4982329783691186      13.006794836403889      8.7858763149014205
 38 13 2 0.5564     1.5677192379327916      12.153422499013276      9.1353978627028507
 39 13 2 0.5564     1.7725372774127977      13.103962355869898      7.8401308035755788
 40 14 1 -1.1128    12.741010290455749      14.303062040459768      9.6609131673064024
 41 14 2 0.5564    0.14890305866715156      14.012109826361081      9.5315769651896005
 42 14 2 0.5564     12.725399562734111      14.499900087599357      10.640224389119821
 43 15 1 -1.1128    0.9301083247436579      13.107984102672761      13.536448306796702
 44 15 2 0.5564    0.76968825325841339      12.089556101429391      13.179698198294336
 45 15 2 0.5564     1.7625887458478213      13.077805126334962      13.055696102463438
 46 16 1 -1.1128     12.48235905331058      14.620997000542401      12.412417701345532
 47 16 2 0.5564     13.071838653282033      14.288446165894628      12.906531630254099
 48 16 2 0.5564     12.365246844765638       15.48625730397595      13.026522562826354
 49 17 1 -1.1128    3.2741516981595864      8.8645649661626944      8.5712949558802531
 50 17 2 0.5564     2.3882455458426564       9.130899856410176      8.7320589925525844
 51 17 2 0.5564     3.2895772138574091      9.1927077546436458      7.5393993946194042
 52 18 1 -1.1128    5.4321628230825647      10.023568893482445         9.6762063887015
 53 18 2 0.5564     4.8264189615340101      9.5933478210183036      9.2910288804294225
 54 18 2 0.5564     5.2519885663143127      10.965557246610876       9.419195600910129
 55 19 1 -1.1128    3.0819862857922709      9.6084293715290414      13.454955016317642
 56 19 2 0.5564     3.1521975181348809      8.7426954544917326      13.054568955004212
 57 19 2 0.5564     3.0273751976270811      9.2690680261769476      14.411875691983333
 58 20 1 -1.1128    5.5134444426772671       10.38446775131829      12.354785011306086
 59 20 2 0.5564     5.2787861002744396      10.338588087133001      11.344257625821498
 60 20 2 0.5564      4.706433320733864      10.210738872978837      12.801410577308218
 61 21 1 -1.1128     5.575516929516187      12.786964039450565      8.9082750037832827
 62 21 2 0.5564     6.4056372202597247       13.08250951173989      9.2633529122991956
 63 21 2 0.5564     4.9326248277622424      13.463046135872347      8.8940930545310835
 64 22 1 -1.1128     3.585000975388227      14.388767581537618       10.13047856540118
 65 22 2 0.5564     3.0411232215663411      13.747484178504818      9.4416327146524157
 66 22 2 0.5564     3.8015191230012984      14.083448206162915      11.019385152503931
 67 23 1 -1.1128    5.6762722704721194      12.992586428291142      13.305928130183139
 68 23 2 0.5564     5.4754495189344308      12.146823659193315       13.16178554970527
 69 23 2 0.5564     5.8072436301706114      12.999852031396841      14.259541977457896
 70 24 1 -1.1128    3.2769457538331541      14.200692709010584       12.58286038920528
 71 24 2 0.5564     3.9167474606754267      13.448959438518107      12.858831596463302
 72 24 2 0.5564     3.4312326614440329      15.132805557029142      12.588183911946961
 73 25 1 -1.1128    7.7986962279618739      1.2647229505139519      8.7126911066335353
 74 25 2 0.5564     7.4509209649564205     0.38682854117009297      8.9834710854526012
 75 25 2 0.5564     7.9903642137509392      1.2071325946513782      7.7475247916675523
 76 26 1 -1.1128    9.8925604913791911      2.5854963512067499      9.5360061784448575
 77 26 2 0.5564     9.0801094277077059      2.0405284923304041      9.4086120566920712
 78 26 2 0.5564     10.595085573029793      1.9943630724512262      9.0801517618845775
 79 27 1 -1.1128    7.9739597202129469      1.1772552493237949      13.253126828079237
 80 27 2 0.5564     7.9019916195301381     0.22216023503571924      12.885078786124092
 81 27 2 0.5564       7.07848604392289      1.5391860027209019      13.258656729933174
 82 28 1 -1.1128    10.198631298393376      2.5326791737865206      12.187252798106305
 83 28 2 0.5564     10.100077334634802      2.6202580021909676      11.204787680115905
 84 28 2 0.5564     9.4402568539040708      2.2306406971194157      12.804135839944367
 85 29 1 -1.1128    9.9684233363342436      5.3679207096789412      8.9834710854526012
 86 29 2 0.5564     10.025309886506315      4.5679846870453122      9.2446200390332294
 87 29 2 0.5564     9.3980814301951003      6.0471196598729424      9.5164107463251195
 88 30 1 -1.1128    7.7066723109858426      6.9661417220481816      10.133172077404675
 89 30 2 0.5564     7.8615624806171489      7.7946744811590083      10.143205277323396
 90 30 2 0.5564     7.8468513541540457      6.7778604704088936       11.09291961773101
 91 31 1 -1.1128    10.100474217542978      5.0070959366526218      13.336763286262455
 92 31 2 0.5564     10.089573166998376      4.1193535394138578      12.752641605551398
 93 31 2 0.5564     10.907130790755076      5.4382483610079495      12.980431227756704
 94 32 1 -1.1128    8.0119017262346901      6.8441134572139504      12.897043482862609
 95 32 2 0.5564     8.2224613384529945      7.8486505566711156      13.101702769179344
 96 32 2 0.5564     8.6828560954828227      6.2917582844733992       13.12709269175847
 97 33 1 -1.1128    12.187009376589289      1.1537544893875928      8.6850680562243987
 98 33 2 0.5564     12.447406898530438     0.20311038462042216      9.0033681485825543
 99 33 2 0.5564      12.36251099858527     0.97628432816705368      7.6958241781623311
 100 34 1 -1.1128   1.0021875526407555      2.2511251469534708      9.6347929801762309
 101 34 2 0.5564   0.29314194939740396      1.7687959945317135      9.2909759627083339
 102 34 2 0.5564    1.2386556811048701      3.1192932791609325       9.293039753830854
 103 35 1 -1.1128   12.293305202943376      1.5013074979644652      13.495802205227243
 104 35 2 0.5564    11.494094153088684      1.9514044664701207      13.195245424750667
 105 35 2 0.5564    13.159234915548716      1.8250581155949204      13.014235067989187
 106 36 1 -1.1128   1.0555444908161051      2.6687570935702274       12.33196159819984
 107 36 2 0.5564   0.96733064975857486       2.568128755144913      11.352205867529262
 108 36 2 0.5564    1.3391781840880039      3.4763873528503866      12.498091491790728
 109 37 1 -1.1128   1.3950645893314697      4.9406683213679683      8.8439799726585697
 110 37 2 0.5564   0.51476348203242406      5.4245955889666524      8.9338342630698975
 111 37 2 0.5564    2.1024792684108182      5.5127035945820024      9.1301060905938218
 112 38 1 -1.1128   12.345863083530261      6.6275212247913524      9.4373463792441026
 113 38 2 0.5564    12.331977473516167       7.592740457478425      8.9838415095002322
 114 38 2 0.5564    11.421766211902462      6.2252936267839818      9.2862133678102072
 115 39 1 -1.1128   1.2882290022222631      5.6212378405382077      13.299842592257754
 116 39 2 0.5564   0.45057587388152287      6.0396582611992091      13.304324723234103
 117 39 2 0.5564    1.2397987038804206      5.2203120184696594      14.109705979367922
 118 40 1 -1.1128    12.14935841803354      6.4893001373034886      12.469944555942797
 119 40 2 0.5564    12.003617722378745      7.2544903842692259      12.888036886733039
 120 40 2 0.5564    12.624215588237348      6.5408949153665308      11.663383234628663
 121 41 1 -1.1128   3.5310301916482292      1.2903245439774389      9.0417864140941102
 122 41 2 0.5564    3.7772034301603052     0.34664070706527556       9.351513835635636
 123 41 2 0.5564    2.7213996425108573      1.6312416703295876      9.3040466398176367
 124 42 1 -1.1128   5.6898192070712366      2.9582805291994769      9.9089702766892938
 125 42 2 0.5564    6.3842055432181519      2.4221181791125574      9.4054899111477432
 126 42 2 0.5564    4.7929432111722852      2.6174533629731815      9.7030356732942806
 127 43 1 -1.1128   3.6239219592501426      1.3147989899817027      13.484197348992142
 128 43 2 0.5564    2.7847051122511841      1.8520937792999548      13.029464788118974
 129 43 2 0.5564    4.3909854935424768      2.0175357425166687      13.255740963501097
 130 44 1 -1.1128   5.9598583377950369      2.9101465700957401      12.739221671482898
 131 44 2 0.5564    5.8258706679943977      2.9724889373122227      11.816812875157877
 132 44 2 0.5564    5.8767245979621752      3.8162937507297103      12.896175632236728
 133 45 1 -1.1128   5.9402258632705358      5.3910457537954022      8.6982974864969744
 134 45 2 0.5564    6.4767586374050872      5.9257793254128837      9.2092710013449093
 135 45 2 0.5564    6.1302533997058033      4.5512150612317965      8.9906678955208807
 136 46 1 -1.1128   3.4941782906809449      6.3586992016526276      9.7563344019764315
 137 46 2 0.5564    3.2829254563163581      7.3709093706678868      9.5113041862399061
 138 46 2 0.5564    4.2465889080033747      5.9821896160951438      9.4172376452297897
 139 47 1 -1.1128   5.4969870314181835      5.7578713963933623      13.595176393662717
 140 47 2 0.5564    6.3956357709736569      6.0833153810987062      13.384521529546451
 141 47 2 0.5564    4.9088012697273893      6.3143541513789563      12.885814342447246
 142 48 1 -1.1128   3.5068520848820719       7.055202246643157      12.269862652500372
 143 48 2 0.5564    2.7261781127253117      6.4123048531171021      12.539520775632322
 144 48 2 0.5564    3.6072581688788068      6.6411210791115591      11.422761065058959
 145 49 1 -1.1128   7.7399046398305504      9.2329252226722733     0.99612847357591616
 146 49 2 0.5564    6.9996915572194345      9.5736624287727139      1.7020773317810631
 147 49 2 0.5564     7.736200399354229      8.2763315785229192      1.4547028610002377
 148 50 1 -1.1128   9.8480461043980299       10.39238953416551      1.9366933400070168
 149 50 2 0.5564    8.9471906958730898       10.10765515229493      1.5437369267346677
 150 50 2 0.5564    10.312224478485813       9.635787833332726      1.9690578182258447
 151 51 1 -1.1128   8.0430173462357875      9.3068512790354223      6.1721642348093209
 152 51 2 0.5564    7.8558473667393969      9.5310107455739317      7.1243657081081793
 153 51 2 0.5564    7.5543221919668673      9.8670382744973359       5.673626384417604
 154 52 1 -1.1128   9.6439477459248515      10.769994516549563      4.9363925695038722
 155 52 2 0.5564    9.7318652477442775      10.596599019852977      3.9529855160780634
 156 52 2 0.5564    9.0650278771969699      10.096066171376156      5.4652893164850926
 157 53 1 -1.1128   10.165679433470446        13.0097317699244      1.1812029113171314
 158 53 2 0.5564    10.099299444134775      12.149337250945104      1.3848408856168235
 159 53 2 0.5564    10.774471355753802      13.598658379710459      1.6139693261657135
 160 54 1 -1.1128    7.733872019626256      14.082511562499617      2.2738850587944088
 161 54 2 0.5564    8.5557212705633781       13.57611543052599      2.0889587906722467
 162 54 2 0.5564    7.8615624806171489      14.959702166152974      1.8767269784674894
 163 55 1 -1.1128    10.22403180451672      13.383468466896753      5.8402113704098682
 164 55 2 0.5564    10.149116186769183      12.553432844506961      5.4260243674360904
 165 55 2 0.5564    10.992566451455364      13.744727165236013      5.3904636588634087
 166 56 1 -1.1128   7.8897147082371877      14.649530235754289      4.8464377354224712
 167 56 2 0.5564    7.8087505949690303      14.404013176983735      3.9705118653031715
 168 56 2 0.5564    8.8235854829503655      14.359154824815487      5.2025157888669904
 169 57 1 -1.1128   11.720269784800735      8.5884402975135092      1.8114582612747132
 170 57 2 0.5564    12.509839225872774      8.8853087128300903      2.2229782111055401
 171 57 2 0.5564    11.790004757653533      7.6599988809841948      1.9953896762403778
 172 58 1 -1.1128   1.0489562345403627      10.046588102156726      2.5122476416735564
 173 58 2 0.5564    1.0211955980563912      10.210580119815567      3.5730997799150179
 174 58 2 0.5564    1.9597919252629332       9.627850175169181      2.2187659605067518
 175 59 1 -1.1128   12.033188144924006      9.2862133678102037      5.5970544419999397
 176 59 2 0.5564    11.184170935979123       9.590701934963791      5.3636872919917158
 177 59 2 0.5564    12.046301156210182      8.3609999322674007      5.4188804750888995
 178 60 1 -1.1128  0.78081685000370349      10.504908484519813      5.1388822292559047
 179 60 2 0.5564    13.445636734810849      10.208833835019584      5.4015234625712809
 180 60 2 0.5564   0.69421170766731866      11.478494008911262      5.4590450253964384
 181 61 1 -1.1128   1.0544014680405542       12.84067023458511      1.4742665424873218
 182 61 2 0.5564    1.2259818869037433      12.853439280684199     0.68440605394928578
 183 61 2 0.5564   0.73499539531161284      11.947175681063831      1.6793544623448882
 184 62 1 -1.1128   12.214648302314753      14.021328093375011      2.4510641725489513
 185 62 2 0.5564    12.766992891511086      13.507946822217466      2.0255051513128679
 186 62 2 0.5564    12.753202533394953      14.843219678489007      1.8526705824598388
 187 63 1 -1.1128   1.2335861634244194      13.062607156837828      6.1297242224948993
 188 63 2 0.5564   0.49911094931112421       13.63689672497031      5.7082874917317499
 189 63 2 0.5564    1.8484583318610508      13.541919999157438      5.6702925679889153
 190 64 1 -1.1128   12.617923671199712      14.446765403852586      5.1658967258725026
 191 64 2 0.5564    12.605286919403348      14.394525029592243      4.1149825356517988
 192 64 2 0.5564    12.829086545438445      15.095531372647557      5.6035104039729564
 193 65 1 -1.1128     3.31739605983458      8.8469962827607134       1.244878805105089
 194 65 2 0.5564    4.1719061282286347      8.9753746741257814        1.69162079009362
 195 65 2 0.5564    3.1396824770970251       8.046721586712108      1.6014913275326208
 196 66 1 -1.1128   5.6334618341100668      10.232276385462587      2.1960854252474498
 197 66 2 0.5564    5.5843012712171776      10.334672175772317      3.1423071960631042
 198 66 2 0.5564    5.4712690189682966      11.006388560204151      1.7095228551384682
 199 67 1 -1.1128   3.3007957707285525      9.5914957007801451      5.9899685210954177
 200 67 2 0.5564     2.526842349150261      9.7770781486438274      5.2380923727559985
 201 67 2 0.5564    3.5018354849227111      8.7183003850691065      5.6557401946890815
 202 68 1 -1.1128   5.7936966935714951      10.744959142701742      4.9758268552603635
 203 68 2 0.5564    5.1107352934079744       10.15522818355511      5.3325187542695307
 204 68 2 0.5564    5.4581983418589939      11.730398236617416      5.0071382708294943
 205 69 1 -1.1128   5.5994886571700935      12.736163027203878       1.279783333936251
 206 69 2 0.5564    6.4072247518924339       12.89494794110743      1.7275519227139335
 207 69 2 0.5564    4.7589224082833317      13.192620705784588      1.7681133559296485
 208 70 1 -1.1128   3.3856652118131754      13.748505490521861      2.3964001666626711
 209 70 2 0.5564    2.4625737768860918      13.659741305164991      1.8810080221036944
 210 70 2 0.5564    3.2792529664726913      14.006368253622783      3.4017998249736077
 211 71 1 -1.1128   5.4046456081156098      13.404757266091382      6.1124201276983712
 212 71 2 0.5564    5.7160134790109351      13.207469418322525      6.9446042095644298
 213 71 2 0.5564     6.162691962734157      13.752611905678469      5.6670645870024057
 214 72 1 -1.1128   3.1099638849327125      14.655271808492587      4.8807548775495304
 215 72 2 0.5564    4.0688171157726218      14.494280225619567      5.3206122670242131
 216 72 2 0.5564     2.972605356298621       15.59282512741644      4.8407226215447192
 217 73 1 -1.1128   7.8517197844943531      1.0845169431130444      1.2998021078247117
 218 73 2 0.5564    7.8813537083049221      1.3241072171214867     0.29000075347348381
 219 73 2 0.5564    7.0392740125949773      1.5389849153807587       1.515986873794914
 220 74 1 -1.1128    10.33560352766351      2.3970722217205185      2.3243632729424455
 221 74 2 0.5564    9.5308731594990981      1.7915770734610876      2.3529388423312079
 222 74 2 0.5564    11.090914036101687      1.9397731513744727      1.9431016760310524
 223 75 1 -1.1128   7.8092268544588412      1.4886389955354473      5.8547637437097002
 224 75 2 0.5564    7.8013950317374787      0.5288205454628514      5.7279728839773414
 225 75 2 0.5564    7.1065853538218393      1.6744119471950545      5.3608826527739311
 226 76 1 -1.1128   10.654364004195148      2.5169467353063748       5.238616258194793
 227 76 2 0.5564    10.619157844353772      2.2721758164031924      4.3011788290801283
 228 76 2 0.5564    9.8243601324380112      2.4067032469589531      5.4889435378124567
 229 77 1 -1.1128   10.221830427319365      5.0532348976712544      1.1835895005383039
 230 77 2 0.5564    10.266847532650882      4.8915977186009334     0.22340962243066123
 231 77 2 0.5564    10.181512415620665      4.0968264655457176      1.5366565356527853
 232 78 1 -1.1128   7.8246788290172091      6.6330246677847429      2.0441533562250895
 233 78 2 0.5564    8.6649910728427386       6.177773513244893      1.6576476131536473
 234 78 2 0.5564     7.941732828068953      6.5478800545504505      3.0267931026950881
 235 79 1 -1.1128    10.29522730647161      5.3038902671596793      5.9772153503126555
 236 79 2 0.5564    9.9982583474849545      5.2694831649067648       6.758545502210934
 237 79 2 0.5564    10.316320310098202      4.2922780683927408      5.5270972147185633
 238 80 1 -1.1128   8.0277241248406916      6.4386049604989806      4.8766907965697941
 239 80 2 0.5564    7.9242699801091536      7.3234421748498875      5.1929641402101909
 240 80 2 0.5564    8.6036118081500987      5.8879960725544098      5.3125158556973968
 241 81 1 -1.1128   12.424165435427579     0.77200604944216855      1.4461883996768083
 242 81 2 0.5564    12.586739258161197     0.88003228527590704     0.38560561263569615
 243 81 2 0.5564    12.956258412762653      1.3597578858200219      1.8512100533577465
 244 82 1 -1.1128   1.1548445944420529      2.1778817291923867      2.1356904301670907
 245 82 2 0.5564    1.2438151589111743         2.4049728374793      3.1009784558915796
 246 82 2 0.5564    1.9841129098760351      1.7940324557196776      2.0365596632486316
 247 83 1 -1.1128    12.85190995854469      1.4294611080401649       6.031456014430213
 248 83 2 0.5564    11.931533202709538      1.6923193040120119       5.584354188938268
 249 83 2 0.5564    13.395887726859437      2.1632764381714638      5.7100866942488198
 250 84 1 -1.1128   1.3931330925116738       2.977870669547106      4.7002049049615353
 251 84 2 0.5564    1.3994355930935287      3.8395140467441338      5.1679975593997876
 252 84 2 0.5564    1.8555228476266061      2.4315216581503032      5.4449689115864173
 253 85 1 -1.1128   1.1037366594130413      4.8709333485151713      1.3241283842099225
 254 85 2 0.5564    1.2556740202075105      3.9680353159561452      1.5220935788087346
 255 85 2 0.5564    0.3228383161188586      5.3110341595068693      1.5539553386772045
 256 86 1 -1.1128    12.47571258754164      6.1104621720180319      2.3124779527855646
 257 86 2 0.5564    11.828438898481416      5.6020816255035184      1.8128552891114973
 258 86 2 0.5564    12.535012185795429      6.0709855520846672      3.2888204904458171
 259 87 1 -1.1128   1.5440650166054275      5.0994585270436312       6.127078336440384
 260 87 2 0.5564    1.4427222889453939      5.1579749430252857      7.0507571580715709
 261 87 2 0.5564    2.1028285253700143      5.7119917322080722      6.3153595880796729
 262 88 1 -1.1128   12.631105475523304      6.5611094848230262      5.0589553033211159
 263 88 2 0.5564    12.134996548529633      5.7065941246568608      5.4195684054630746
 264 88 2 0.5564  0.002528271127619699       6.341606777740461      4.9965653101556509
 265 89 1 -1.1128   3.3970583971639172     0.80172993337859011      1.4749121386846236
 266 89 2 0.5564    3.3641964923668408      0.9365219525398023     0.50330520788474142
 267 89 2 0.5564     3.231018463698883       15.60724250760977      1.4963067733214317
 268 90 1 -1.1128   5.6583331630225082      2.4307226005618405      2.0093917052408714
 269 90 2 0.5564    4.8444268620210398      1.8935706890905317      1.7218103499756361
 270 90 2 0.5564    5.4423230255319028      3.4047314667220108      1.8842677537228569
 271 91 1 -1.1128   3.4212894216511653      1.6419151746735012      6.2424918861383292
 272 91 2 0.5564    3.5003908311369458       1.702241376716443      7.2670848018887177
 273 91 2 0.5564    4.1859240325454552      1.9830757225426652      5.8234364528242439
 274 92 1 -1.1128   5.4610558987978699      2.4176360481362087       4.656219695191278
 275 92 2 0.5564    5.3587130262092293      2.5723727563763554      3.6333307300599977
 276 92 2 0.5564    5.2656995478488087      3.2615837394006402      5.0768203259611999
 277 93 1 -1.1128   5.5911805749589165      5.2638368440664305      1.5162038364513841
 278 93 2 0.5564    5.6352610366271367      5.5042896769286447     0.67938945398992545
 279 93 2 0.5564    6.5028999916236963      5.5575249043454864      1.6745654085862161
 280 94 1 -1.1128   3.3531261051147503      6.4919989410790944      2.6994546635747105
 281 94 2 0.5564    2.6487383196817671      5.9262555849026963      2.2964227162067679
 282 94 2 0.5564    4.5008109318932856      6.2943512528068233      2.3520180739842371
 283 95 1 -1.1128   6.0428333244646275      4.9507544390077793      6.0010283248032898
 284 95 2 0.5564    5.8445506235392735      5.1909320997203245      6.9557169309933915
 285 95 2 0.5564    6.7401301352715102       5.529266841283266      5.6203911570007623
 286 96 1 -1.1128   3.7182848394983647       6.887717659392357      5.5455125816579871
 287 96 2 0.5564    3.5948912974600034       6.966194639769272      4.6106416620162021
 288 96 2 0.5564    4.5358689221156094      6.4217242074711756      5.8824926295610185

Bonds

 1 1 1 2
 2 1 1 3
 3 1 4 5
 4 1 4 6
 5 1 7 8
 6 1 7 9
 7 1 10 11
 8 1 10 12
 9 1 13 14
 10 1 13 15
 11 1 16 17
 12 1 16 18
 13 1 19 20
 14 1 19 21
 15 1 22 23
 16 1 22 24
 17 1 25 26
 18 1 25 27
 19 1 28 29
 20 1 28 30
 21 1 31 32
 22 1 31 33
 23 1 34 35
 24 1 34 36
 25 1 37 38
 26 1 37 39
 27 1 40 41
 28 1 40 42
 29 1 43 44
 30 1 43 45
 31 1 46 47
 32 1 46 48
 33 1 49 50
 34 1 49 51
 35 1 52 53
 36 1 52 54
 37 1 55 56
 38 1 55 57
 39 1 58 59
 40 1 58 60
 41 1 61 62
 42 1 61 63
 43 1 64 65
 44 1 64 66
 45 1 67 68
 46 1 67 69
 47 1 70 71
 48 1 70 72
 49 1 73 74
 50 1 73 75
 51 1 76 77
 52 1 76 78
 53 1 79 80
 54 1 79 81
 55 1 82 83
 56 1 82 84
 57 1 85 86
 58 1 85 87
 59 1 88 89
 60 1 88 90
 61 1 91 92
 62 1 91 93
 63 1 94 95
 64 1 94 96
 65 1 97 98
 66 1 97 99
 67 1 100 101
 68 1 100 102
 69 1 103 104
 70 1 103 105
 71 1 106 107
 72 1 106 108
 73 1 109 110
 74 1 109 111
 75 1 112 113
 76 1 112 114
 77 1 115 116
 78 1 115 117
 79 1 118 119
 80 1 118 120
 81 1 121 122
 82 1 121 123
 83 1 124 125
 84 1 124 126
 85 1 127 128
 86 1 127 129
 87 1 130 131
 88 1 130 132
 89 1 133 134
 90 1 133 135
 91 1 136 137
 92 1 136 138
 93 1 139 140
 94 1 139 141
 95 1 142 143
 96 1 142 144
 97 1 145 146
 98 1 145 147
 99 1 148 149
 100 1 148 150
 101 1 151 152
 102 1 151 153
 103 1 154 155
 104 1 154 156
 105 1 157 158
 106 1 157 159
 107 1 160 161
 108 1 160 162
 109 1 163 164
 110 1 163 165
 111 1 166 167
 112 1 166 168
 113 1 169 170
 114 1 169 171
 115 1 172 173
 116 1 172 174
 117 1 175 176
 118 1 175 177
 119 1 178 179
 120 1 178 180
 121 1 181 182
 122 1 181 183
 123 1 184 185
 124 1 184 186
 125 1 187 188
 126 1 187 189
 127 1 190 191
 128 1 190 192
 129 1 193 194
 130 1 193 195
 131 1 196 197
 132 1 196 198
 133 1 199 200
 134 1 199 201
 135 1 202 203
 136 1 202 204
 137 1 205 206
 138 1 205 207
 139 1 208 209
 140 1 208 210
 141 1 211 212
 142 1 211 213
 143 1 214 215
 144 1 214 216
 145 1 217 218
 146 1 217 219
 147 1 220 221
 148 1 220 222
 149 1 223 224
 150 1 223 225
 151 1 226 227
 152 1 226 228
 153 1 229 230
 154 1 229 231
 155 1 232 233
 156 1 232 234
 157 1 235 236
 158 1 235 237
 159 1 238 239
 160 1 238 240
 161 1 241 242
 162 1 241 243
 163 1 244 245
 164 1 244 246
 165 1 247 248
 166 1 247 249
 167 1 250 251
 168 1 250 252
 169 1 253 254
 170 1 253 255
 171 1 256 257
 172 1 256 258
 173 1 259 260
 174 1 259 261
 175 1 262 263
 176 1 262 264
 177 1 265 266
 178 1 265 267
 179 1 268 269
 180 1 268 270
 181 1 271 272
 182 1 271 273
 183 1 274 275
 184 1 274 276
 185 1 277 278
 186 1 277 279
 187 1 280 281
 188 1 280 282
 189 1 283 284
 190 1 283 285
 191 1 286 287
 192 1 286 288

Angles

 1 1 2 1 3
 2 1 5 4 6
 3 1 8 7 9
 4 1 11 10 12
 5 1 14 13 15
 6 1 17 16 18
 7 1 20 19 21
 8 1 23 22 24
 9 1 26 25 27
 10 1 29 28 30
 11 1 32 31 33
 12 1 35 34 36
 13 1 38 37 39
 14 1 41 40 42
 15 1 44 43 45
 16 1 47 46 48
 17 1 50 49 51
 18 1 53 52 54
 19 1 56 55 57
 20 1 59 58 60
 21 1 62 61 63
 22 1 65 64 66
 23 1 68 67 69
 24 1 71 70 72
 25 1 74 73 75
 26 1 77 76 78
 27 1 80 79 81
 28 1 83 82 84
 29 1 86 85 87
 30 1 89 88 90
 31 1 92 91 93
 32 1 95 94 96
 33 1 98 97 99
 34 1 101 100 102
 35 1 104 103 105
 36 1 107 106 108
 37 1 110 109 111
 38 1 113 112 114
 39 1 116 115 117
 40 1 119 118 120
 41 1 122 121 123
 42 1 125 124 126
 43 1 128 127 129
 44 1 131 130 132
 45 1 134 133 135
 46 1 137 136 138
 47 1 140 139 141
 48 1 143 142 144
 49 1 146 145 147
 50 1 149 148 150
 51 1 152 151 153
 52 1 155 154 156
 53 1 158 157 159
 54 1 161 160 162
 55 1 164 163 165
 56 1 167 166 168
 57 1 170 169 171
 58 1 173 172 174
 59 1 176 175 177
 60 1 179 178 180
 61 1 182 181 183
 62 1 185 184 186
 63 1 188 187 189
 64 1 191 190 192
 65 1 194 193 195
 66 1 197 196 198
 67 1 200 199 201
 68 1 203 202 204
 69 1 206 205 207
 70 1 209 208 210
 71 1 212 211 213
 72 1 215 214 216
 73 1 218 217 219
 74 1 221 220 222
 75 1 224 223 225
 76 1 227 226 228
 77 1 230 229 231
 78 1 233 232 234
 79 1 236 235 237
 80 1 239 238 240
 81 1 242 241 243
 82 1 245 244 246
 83 1 248 247 249
 84 1 251 250 252
 85 1 254 253 255
 86 1 257 256 258
 87 1 260 259 261
 88 1 263 262 264
 89 1 266 265 267
 90 1 269 268 270
 91 1 272 271 273
 92 1 275 274 276
 93 1 278 277 279
 94 1 281 280 282
 95 1 284 283 285
 96 1 287 286 288
