<simulation verbosity='medium'>
   <prng>
      <seed>31415</seed>
      <state shape='(624)'>
       [ 1219142554, 3738239330, 3996473776, 1582101112, 2388568497, 
         3803268988, 1914821736, 200914036, 2084252693, 4071816107, 
         2211209142, 657785724, 2256748282, 1975009672, 3429362195, 
         1062019115, 3111948689, 2671962716, 1711006883, 1680246487, 
         69658669, 3190457283, 3198350280, 2680457720, 683417253, 
         2827508589, 3271240032, 2485954035, 3263001219, 3049563054, 
         454706456, 3469615058, 2038405370, 2151099450, 3833364648, 
         1771411811, 3773645254, 2110036318, 1654765618, 2049738610, 
         1357995389, 884878230, 2204834507, 3447771029, 4002831582, 
         228291350, 2821905489, 2931577014, 3216790848, 417969732, 
         2178167682, 1395992058, 3151226558, 2116116143, 1525210754, 
         4283270820, 4156553821, 2874470651, 3817393, 2971294785, 
         4270521475, 3591114228, 2098841015, 4096552120, 284647493, 
         2935909103, 2638143749, 961196892, 2383067542, 1548324310, 
         3303281238, 984482376, 3510821425, 3049877306, 2720713321, 
         1282590505, 3431051856, 740914246, 4269623617, 417750039, 
         3222520074, 3483911898, 4261131217, 3536652633, 175954607, 
         1409944453, 2031348938, 1425273125, 2308768351, 1051498522, 
         731150435, 1099609003, 2351648940, 2563283696, 3381692768, 
         1453676813, 2749107729, 1011300458, 1670379610, 2420502020, 
         1661730854, 4097020924, 3942812745, 2668140240, 1526973301, 
         2455344331, 3780881795, 801464875, 2001904328, 2316248849, 
         3965796393, 2980188143, 3604233863, 3904464398, 3542164047, 
         1754551826, 4003332871, 2041563206, 2907900156, 2994674814, 
         4146883171, 3584129373, 1732491499, 234491449, 2082020781, 
         1168557091, 4003543332, 3854505852, 2716727376, 747741096, 
         3199783565, 4170492567, 3592116656, 2680564749, 2269030783, 
         3296988324, 2113580496, 383260748, 1801466452, 965869048, 
         636285254, 1760580334, 3431220298, 1307586949, 2998269709, 
         2750959595, 4050220636, 3759571614, 3079664933, 1907974819, 
         1488619629, 685515057, 1327763498, 1501259238, 2631842663, 
         1388446233, 1610926347, 1858273195, 2917113013, 1157719866, 
         2545630652, 1907872513, 2707947275, 318728220, 142969309, 
         501813082, 1838743195, 1812102113, 2615010054, 79662960, 
         1831876303, 1962304918, 4083266318, 955379713, 3809470294, 
         1423479599, 4114571898, 1113760850, 397539035, 637279186, 
         3156752862, 209314321, 1722527887, 1850434456, 2004520105, 
         349649894, 856281899, 1287393787, 2240012234, 4153908123, 
         1096845197, 3482546492, 3830191632, 2096609475, 1454127551, 
         1420837830, 551495135, 570888361, 4117279260, 3008064441, 
         2696010737, 923216314, 137501283, 2407799574, 2640480892, 
         2675773521, 104789374, 1740898427, 4145752132, 1829179025, 
         2869219491, 2638237221, 3163509000, 3951549914, 180925060, 
         1796848750, 1386004139, 3085870079, 1224295763, 2717191703, 
         1595526236, 2199074901, 287132506, 3153417778, 3231740748, 
         4134395979, 690432525, 1802476820, 1643454453, 3192367956, 
         2275763291, 3394043694, 961429844, 3539868832, 241123119, 
         2269973172, 2331840068, 2666038441, 4117922463, 1343045393, 
         3885974891, 3459183042, 3541846290, 3681280805, 3213299881, 
         3628206543, 1245604237, 3893406513, 3976311467, 1120600083, 
         3992861119, 4258406857, 2083114617, 3611902193, 578248802, 
         1305178511, 2834385672, 946824010, 2588465595, 1198768335, 
         1836405829, 3776564469, 1536760295, 996185346, 328156373, 
         3124834004, 2786358330, 2540141654, 443589797, 1632223183, 
         3992301352, 2267458436, 3746450965, 3443125146, 2695901510, 
         3952558297, 786743177, 2080008893, 744418735, 2731993468, 
         1971641376, 2916248757, 428982508, 1921261899, 2261689554, 
         3006323578, 564994677, 324622650, 1902011101, 1334329678, 
         1260136537, 1078467229, 3100374250, 388525736, 1537567213, 
         1842821046, 3725919955, 970037117, 1946992692, 3555173885, 
         234193584, 2942420394, 1690344249, 1815105846, 4148927617, 
         557208020, 2189415534, 1944239744, 4117570124, 686824182, 
         513055648, 325718264, 3346976506, 3349463385, 2499755505, 
         364435824, 1633963082, 1728079802, 1795456011, 2745729951, 
         2079035189, 917813992, 206937626, 2240156764, 1093548396, 
         2266512108, 715967507, 3130035490, 3317608123, 1397765222, 
         1524271351, 74626799, 2079642407, 3263219793, 4015912273, 
         2336042917, 321771874, 2854492554, 2873367861, 4168775237, 
         2931470834, 2502151185, 3630900062, 352371360, 72446915, 
         670596738, 2783262346, 3874543991, 3933343186, 2439326822, 
         3742012796, 2936602208, 2610548838, 2048368974, 1447435381, 
         621221699, 1599653776, 2450974291, 635192356, 2767956043, 
         4105008387, 4197341607, 3469477047, 3232278655, 3756724158, 
         621452384, 3468881137, 2804285769, 1079136186, 1269222524, 
         2341594742, 346029094, 3116566040, 1525368172, 1440393377, 
         2465847101, 2903902092, 2831330977, 1952199802, 1974616954, 
         3190032327, 1505376998, 2832900813, 3867932804, 2322657758, 
         4197177925, 996567995, 669692880, 4075466940, 3678478902, 
         1080382761, 231826077, 3628389964, 3714293817, 3439013173, 
         167436677, 2803948946, 3045662487, 2252465223, 3101417556, 
         1262561498, 2315050604, 799846667, 210547891, 3244721748, 
         3781950865, 2210671229, 3000962180, 884136162, 1483603873, 
         4256184746, 2401174836, 3639866696, 2480010983, 3866379209, 
         742910632, 3964737060, 1295546204, 2573228519, 714713210, 
         3544114216, 1252288211, 1267886582, 3080074656, 2954915275, 
         3988378823, 2794650057, 321040014, 2755139964, 3110017899, 
         596542738, 433633448, 3015355653, 1285690256, 1611047298, 
         1562077001, 3414149870, 2766929488, 3270068626, 3645346347, 
         1332127822, 390456634, 2800650267, 4158781205, 307002395, 
         828089309, 2144839137, 620348860, 135197570, 2844387497, 
         1270924632, 1299418749, 2385766608, 851869919, 3307539976, 
         2659025785, 3211188665, 3575938440, 615640341, 1665788112, 
         3052379265, 3313417209, 1393488885, 1537701305, 2358353136, 
         517915965, 1863533241, 4205064011, 3314575540, 1516970149, 
         3909367781, 2364283839, 3130545026, 3593994076, 2168463821, 
         2361426599, 1276365052, 2922100723, 2888835159, 3102083905, 
         2172039061, 727451705, 3107225404, 3165862566, 2937487542, 
         3930192048, 40382239, 1128139622, 2259396811, 3889098331, 
         3304439593, 2164981960, 2197968276, 3823357129, 1582266598, 
         2165807847, 2436915051, 627973743, 546214533, 3520617979, 
         1493716577, 2610478769, 2000662794, 3830155116, 706863495, 
         2368905656, 1532432318, 1689168680, 1040499806, 2612048583, 
         747078727, 3616523016, 2543245519, 1126448897, 2906540328, 
         1326895958, 2904633901, 1209127856, 1677901570, 284088725, 
         1018291402, 2826770533, 175022389, 2293772233, 3765357002, 
         1777606371, 2585385092, 1445174832, 3923087071, 338726084, 
         2991303561, 335999102, 3732928470, 895148246, 3356965115, 
         2889488469, 3564906467, 4112857044, 2362240339, 2455279852, 
         268213396, 324501671, 2287633928, 3929556477, 4102731905, 
         3063515761, 2960412302, 2400839520, 2580741907, 373366204, 
         2182036278, 3318213142, 3875220266, 1336913691, 151063711, 
         4204195124, 4291740698, 2912707721, 1176880605, 4081157597, 
         3648505427, 3610555062, 3215883088, 1113084007, 2433381611, 
         2222158796, 774973091, 828522705, 2404846384, 3353810791, 
         286881892, 1085468133, 2871292449, 2019191995, 2722039314, 
         1324723976, 862095643, 3332037036, 487658000, 1685361648, 
         3641382960, 1140100488, 3767219800, 1060979507, 3535796731, 
         1481708518, 798375384, 3818918518, 420098374, 803286583, 
         2839917202, 4156975824, 813658845, 2993480974, 890993155, 
         3437668354, 1688020027, 114864441, 1074657764, 1753519686, 
         3920927036, 1773952849, 2354524557, 72457469, 10417155, 
         2864565942, 1964297490, 2741933063, 2542336015, 1539934387, 
         2610733873, 1727994328, 810950028, 1678699872, 231356089, 
         290630088, 754780691, 717426097, 1374953914, 538547810, 
         4281244778, 3428436464, 2247442450, 3279260767 ]
      </state>
      <set_pos>416</set_pos>
   </prng>
   <output prefix='simulation'>
      <properties shape='(6)' stride='2'>
       [ step, time{picosecond}, conserved, cell_abcABC, volume, 
         virial_md ]
      </properties>
      <trajectory filename='xc' stride='10' format='pdb' cell_units='angstrom'>x_centroid{angstrom}</trajectory>
      <checkpoint stride='2000'>1</checkpoint>
   </output>
   <total_steps>200</total_steps>
   <ffsocket mode='unix' name='lammps'>
      <address>lammps_ice</address>
      <latency>  1.00000000e-03</latency>
   </ffsocket>
   <system>
      <forces>
         <force forcefield='lammps'>
         </force>
      </forces>
      <ensemble>
         <temperature>  6.33363040e-04</temperature>
         <stress shape='(3, 3)'>
          [   3.39882738e-08,   0.00000000e+00,   0.00000000e+00,   0.00000000e+00,   3.39882738e-08, 
              0.00000000e+00,   0.00000000e+00,   0.00000000e+00,   3.39882738e-08 ]
         </stress>
         <eens>  1.13065072e-03</eens>
         <hamiltonian_weights shape='(1)'> [   1.00000000e+00 ] </hamiltonian_weights>
      </ensemble>
      <motion mode='dynamics'>
         <dynamics mode='nst'>
            <thermostat mode='langevin'>
               <tau>  4.13413730e+03</tau>
            </thermostat>
            <barostat mode='anisotropic'>
               <thermostat mode='langevin'>
                  <tau>  4.13413730e+03</tau>
               </thermostat>
               <tau>  8.26827460e+03</tau>
               <p shape='(3, 3)'>
                [   0.00000000e+00,   0.00000000e+00,   0.00000000e+00,   0.00000000e+00,   0.00000000e+00, 
                    0.00000000e+00,   0.00000000e+00,   0.00000000e+00,   0.00000000e+00 ]
               </p>
               <h0 shape='(3, 3)'>
                [   2.56156000e+01,   0.00000000e+00,   0.00000000e+00,   0.00000000e+00,   2.95783000e+01, 
                    0.00000000e+00,   0.00000000e+00,   0.00000000e+00,   2.78867000e+01 ]
               </h0>
               <hfix shape='(1)'> [ offdiagonal ] </hfix>
            </barostat>
            <timestep>  1.03353433e+01</timestep>
            <nmts shape='(1)'> [ 1 ] </nmts>
         </dynamics>
      </motion>
      <beads natoms='288' nbeads='1'>
         <q shape='(1, 864)'>
          [  -1.05426000e+01,  -1.18121000e+01,  -1.08042000e+01,  -9.46578000e+00,  -1.12505000e+01, 
             -9.49096000e+00,  -1.22037000e+01,  -1.14420000e+01,  -1.01070000e+01,  -6.48712000e+00, 
             -9.20624000e+00,  -9.18277000e+00,  -6.09367000e+00,  -9.24663000e+00,  -7.44746000e+00, 
             -6.16664000e+00,  -7.43114000e+00,  -9.58718000e+00,  -1.02576000e+01,  -1.10155000e+01, 
             -3.43586000e+00,  -1.17029000e+01,  -1.05758000e+01,  -3.86325000e+00,  -1.06340000e+01, 
             -1.18032000e+01,  -1.58483000e+00,  -5.23247000e+00,  -9.77012000e+00,  -4.13049000e+00, 
             -7.07659000e+00,  -1.00717000e+01,  -4.12767000e+00,  -4.90023000e+00,  -8.04921000e+00, 
             -3.48484000e+00,  -6.07361000e+00,  -4.76518000e+00,  -1.15942000e+01,  -4.64610000e+00, 
             -3.77023000e+00,  -1.12625000e+01,  -6.44513000e+00,  -4.56536000e+00,  -1.33941000e+01, 
             -1.09013000e+01,  -3.58324000e+00,  -9.18743000e+00,  -9.58235000e+00,  -3.98340000e+00, 
             -1.00233000e+01,  -1.07634000e+01,  -3.07553000e+00,  -7.66932000e+00,  -5.58960000e+00, 
             -4.84598000e+00,  -2.65370000e+00,  -4.25540000e+00,  -3.67408000e+00,  -3.49516000e+00, 
             -5.56508000e+00,  -4.92660000e+00,  -8.34581000e-01,  -1.02395000e+01,  -2.80673000e+00, 
             -4.37924000e+00,  -8.74813000e+00,  -3.21634000e+00,  -3.59713000e+00,  -1.14488000e+01, 
             -3.93240000e+00,  -3.42987000e+00,  -2.56487000e+00,  -1.19609000e+01,  -1.17676000e+01, 
             -3.92972000e+00,  -1.12512000e+01,  -1.09395000e+01,  -3.01188000e+00,  -1.19989000e+01, 
             -1.36347000e+01,   2.14351000e+00,  -1.01243000e+01,  -1.00088000e+01,   3.46009000e-01, 
             -1.06564000e+01,  -1.06616000e+01,   1.99124000e+00,  -9.48809000e+00,  -8.16695000e+00, 
             -1.77009000e+00,  -1.28933000e+01,  -2.01450000e+00,  -2.98127000e+00,  -1.13788000e+01, 
             -2.21391000e+00,  -1.54839000e+00,  -1.29473000e+01,  -3.43587000e-01,   1.54579000e+00, 
             -9.65853000e+00,  -4.92625000e+00,   1.42246000e-01,  -1.08806000e+01,  -4.06022000e+00, 
              3.11191000e+00,  -1.04400000e+01,  -4.10973000e+00,   2.83125000e+00,  -4.99902000e+00, 
             -1.12838000e+01,   2.96256000e+00,  -6.61166000e+00,  -1.06233000e+01,   3.34961000e+00, 
             -4.81540000e+00,  -1.30710000e+01,  -1.53858000e+00,  -2.54943000e+00,  -9.63022000e+00, 
              2.81386000e-01,  -3.09925000e+00,  -9.87463000e+00,  -1.56808000e+00,  -2.17746000e+00, 
             -7.77959000e+00,   1.75765000e+00,  -4.80780000e+00,  -2.30652000e+00,   1.45450000e+00, 
             -6.73235000e+00,  -2.98068000e+00,   3.33081000e+00,  -4.86483000e+00,  -3.21501000e+00, 
             -2.02736000e+00,  -1.94862000e+00,  -4.43063000e+00,  -9.13405000e-01,  -2.57705000e+00, 
             -3.49689000e+00,  -2.24867000e+00,  -3.13515000e-01,  -3.27014000e+00,   6.18725000e+00, 
             -1.28267000e+01,  -1.16893000e+01,   4.51313000e+00,  -1.23234000e+01,  -1.13855000e+01, 
              6.21640000e+00,  -1.22066000e+01,  -1.36393000e+01,   1.02653000e+01,  -1.06365000e+01, 
             -9.60132000e+00,   9.12061000e+00,  -1.14495000e+01,  -1.03292000e+01,   9.92482000e+00, 
             -8.85640000e+00,  -1.00870000e+01,   5.82411000e+00,  -1.14210000e+01,  -2.46052000e+00, 
              5.95679000e+00,  -1.30570000e+01,  -3.21714000e+00,   5.72091000e+00,  -1.20623000e+01, 
             -6.52202000e-01,   1.04189000e+01,  -9.95450000e+00,  -4.53954000e+00,   9.97546000e+00, 
             -1.00412000e+01,  -6.44916000e+00,   8.89387000e+00,  -1.02828000e+01,  -3.69554000e+00, 
              1.05362000e+01,  -5.41444000e+00,  -1.10525000e+01,   1.21049000e+01,  -4.85594000e+00, 
             -1.03815000e+01,   9.32131000e+00,  -4.13683000e+00,  -1.10793000e+01,   6.77467000e+00, 
             -2.38747000e+00,  -8.74287000e+00,   5.74689000e+00,  -3.59932000e+00,  -1.00446000e+01, 
              7.18383000e+00,  -2.96444000e+00,  -7.06308000e+00,   1.07266000e+01,  -5.02587000e+00, 
             -2.74214000e+00,   1.03471000e+01,  -6.62413000e+00,  -3.01453000e+00,   1.09741000e+01, 
             -5.01214000e+00,  -9.40071000e-01,   6.19253000e+00,  -2.74288000e+00,  -4.10854000e+00, 
              7.40158000e+00,  -4.16345000e+00,  -3.58703000e+00,   6.48409000e+00,  -9.81442000e-01, 
             -4.09848000e+00,  -1.08782000e+01,   2.38998000e+00,  -1.14221000e+01,  -1.15354000e+01, 
              7.31000000e-01,  -1.09104000e+01,  -1.05160000e+01,   2.28115000e+00,  -1.32460000e+01, 
             -6.92137000e+00,   4.88588000e+00,  -9.86626000e+00,  -8.45668000e+00,   3.85604000e+00, 
             -1.01070000e+01,  -5.59379000e+00,   3.76880000e+00,  -1.07277000e+01,  -1.05470000e+01, 
              2.22469000e+00,  -2.84192000e+00,  -1.06830000e+01,   4.19822000e-01,  -3.53743000e+00, 
             -1.22392000e+01,   2.90864000e+00,  -2.83147000e+00,  -6.34298000e+00,   4.78607000e+00, 
             -4.85613000e+00,  -6.52922000e+00,   4.95157000e+00,  -6.71272000e+00,  -7.77610000e+00, 
              4.21530000e+00,  -3.69039000e+00,  -6.77801000e+00,   1.01439000e+01,  -1.09104000e+01, 
             -6.67051000e+00,   8.63224000e+00,  -1.04169000e+01,  -7.85580000e+00,   1.14274000e+01, 
             -9.90329000e+00,  -1.10521000e+01,   1.31641000e+01,  -8.73778000e+00,  -1.07594000e+01, 
              1.47298000e+01,  -8.71882000e+00,  -1.07872000e+01,   1.28083000e+01,  -6.92412000e+00, 
             -6.52847000e+00,   9.46204000e+00,  -2.68387000e+00,  -6.54907000e+00,   7.78445000e+00, 
             -3.78770000e+00,  -5.00411000e+00,   1.02768000e+01,  -3.35724000e+00,  -1.04753000e+01, 
              1.29335000e+01,  -3.51482000e+00,  -1.00774000e+01,   1.48318000e+01,  -3.12807000e+00, 
             -9.20738000e+00,   1.18897000e+01,  -3.08009000e+00,  -2.58549000e+00,   2.18028000e+00, 
             -1.14743000e+01,  -2.09341000e+00,   3.83823000e-01,  -1.08728000e+01,  -2.25384000e+00, 
              1.84491000e+00,  -1.33437000e+01,   1.89386000e+00,   4.25401000e+00,  -9.67958000e+00, 
              5.53958000e-01,   3.34254000e+00,  -1.03293000e+01,   2.34072000e+00,   5.89461000e+00, 
             -1.03254000e+01,  -2.38462000e+00,   2.83706000e+00,  -2.38333000e+00,  -3.89491000e+00, 
              3.68762000e+00,  -2.95130000e+00,  -7.48250000e-01,   3.44886000e+00,  -3.29336000e+00, 
              1.99469000e+00,   5.04322000e+00,  -4.58267000e+00,   1.82799000e+00,   4.85306000e+00, 
             -6.43414000e+00,   2.53068000e+00,   6.56942000e+00,  -4.26873000e+00,   2.63629000e+00, 
              9.33651000e+00,  -1.11740000e+01,   9.72762000e-01,   1.02510000e+01,  -1.10042000e+01, 
              3.97311000e+00,   1.04175000e+01,  -1.06333000e+01,  -2.28530000e+00,   1.25242000e+01, 
             -1.00527000e+01,  -2.31154000e+00,   1.43482000e+01,  -1.09097000e+01,  -4.03159000e+00, 
              1.17641000e+01,  -1.03383000e+01,   2.43440000e+00,   1.06226000e+01,  -2.75364000e+00, 
              8.51465000e-01,   1.14133000e+01,  -2.74517000e+00,   2.34288000e+00,   9.86496000e+00, 
             -1.22322000e+00,  -2.65664000e+00,   1.22630000e+01,  -4.32192000e+00,  -2.93205000e+00, 
              1.37090000e+01,  -3.53184000e+00,  -1.75929000e+00,   1.23605000e+01,  -5.84610000e+00, 
              6.67268000e+00,   2.43836000e+00,  -1.08002000e+01,   7.13788000e+00,   6.55056000e-01, 
             -1.02149000e+01,   5.14270000e+00,   3.08260000e+00,  -1.03046000e+01,   1.07522000e+01, 
              5.59034000e+00,  -9.16146000e+00,   1.20644000e+01,   4.57714000e+00,  -1.01129000e+01, 
              9.05735000e+00,   4.94627000e+00,  -9.55062000e+00,   6.84822000e+00,   2.48461000e+00, 
             -2.40526000e+00,   5.26233000e+00,   3.49995000e+00,  -3.26458000e+00,   8.29776000e+00, 
              3.81259000e+00,  -2.83698000e+00,   1.12625000e+01,   5.49938000e+00,  -3.81306000e+00, 
              1.10093000e+01,   5.61719000e+00,  -5.55616000e+00,   1.11054000e+01,   7.21175000e+00, 
             -3.51646000e+00,   1.12254000e+01,   1.01876000e+01,  -1.14493000e+01,   1.22393000e+01, 
              1.11981000e+01,  -1.04837000e+01,   1.15845000e+01,   8.60055000e+00,  -1.08968000e+01, 
              6.60304000e+00,   1.20162000e+01,  -9.44990000e+00,   6.20383000e+00,   1.39290000e+01, 
             -9.91294000e+00,   8.02489000e+00,   1.13047000e+01,  -1.00907000e+01,   1.03878000e+01, 
              1.08808000e+01,  -2.19554000e+00,   1.20860000e+01,   1.14958000e+01,  -2.59362000e+00, 
              9.27629000e+00,   1.19324000e+01,  -3.53604000e+00,   6.62699000e+00,   1.33324000e+01, 
             -4.70002000e+00,   5.15173000e+00,   1.21175000e+01,  -4.19044000e+00,   6.81673000e+00, 
              1.25499000e+01,  -6.30081000e+00,  -1.09893000e+01,  -1.21306000e+01,   1.88241000e+00, 
             -1.23881000e+01,  -1.14867000e+01,   3.21646000e+00,  -1.09963000e+01,  -1.39383000e+01, 
              2.74899000e+00,  -7.00549000e+00,  -9.93953000e+00,   3.65982000e+00,  -8.70786000e+00, 
             -1.04776000e+01,   2.91724000e+00,  -6.12832000e+00,  -1.13693000e+01,   3.72098000e+00, 
             -1.04165000e+01,  -1.19909000e+01,   1.16637000e+01,  -1.07702000e+01,  -1.15673000e+01, 
              1.34631000e+01,  -1.13400000e+01,  -1.09323000e+01,   1.07216000e+01,  -7.39118000e+00, 
             -9.22596000e+00,   9.32843000e+00,  -7.22504000e+00,  -9.55363000e+00,   7.47006000e+00, 
             -8.48518000e+00,  -1.04995000e+01,   1.03279000e+01,  -6.40525000e+00,  -4.99347000e+00, 
              2.23215000e+00,  -6.53069000e+00,  -6.61938000e+00,   2.61697000e+00,  -5.25480000e+00, 
             -3.88056000e+00,   3.04996000e+00,  -1.10007000e+01,  -2.96621000e+00,   4.29702000e+00, 
             -9.44763000e+00,  -3.92316000e+00,   3.94756000e+00,  -1.07594000e+01,  -1.30856000e+00, 
              3.54650000e+00,  -6.29498000e+00,  -4.28721000e+00,   1.10364000e+01,  -6.43655000e+00, 
             -5.85575000e+00,   1.02537000e+01,  -4.84266000e+00,  -3.60453000e+00,   1.01865000e+01, 
             -1.07062000e+01,  -1.89470000e+00,   9.15844000e+00,  -1.08592000e+01,  -2.35866000e+00, 
              7.50318000e+00,  -8.94144000e+00,  -2.44343000e+00,   9.83133000e+00,  -3.46750000e+00, 
             -1.33485000e+01,   3.42316000e+00,  -1.97543000e+00,  -1.27875000e+01,   4.20082000e+00, 
             -3.33572000e+00,  -1.51030000e+01,   3.77074000e+00,   1.98224000e+00,  -1.05930000e+01, 
              4.74746000e+00,   1.92978000e+00,  -1.02831000e+01,   6.75218000e+00,   3.70347000e+00, 
             -1.13843000e+01,   4.19286000e+00,  -2.87617000e+00,  -1.20299000e+01,   1.05769000e+01, 
             -4.48058000e+00,  -1.14545000e+01,   1.01359000e+01,  -2.85139000e+00,  -1.37783000e+01, 
              1.02402000e+01,   1.47553000e+00,  -9.72690000e+00,   9.71108000e+00,  -2.07029000e-01, 
             -1.02864000e+01,   1.02074000e+01,   1.31187000e+00,  -7.88709000e+00,   1.03161000e+01, 
              1.99253000e+00,  -5.31295000e+00,   2.78596000e+00,   2.31677000e+00,  -5.28882000e+00, 
              1.29334000e+00,   1.38894000e+00,  -7.00141000e+00,   3.17352000e+00,  -2.53326000e+00, 
             -3.08183000e+00,   4.63184000e+00,  -1.48948000e+00,  -4.05198000e+00,   3.82765000e+00, 
             -1.51554000e+00,  -1.52868000e+00,   3.50104000e+00,   2.33114000e+00,  -4.89355000e+00, 
              1.15835000e+01,   9.43183000e-01,  -3.80830000e+00,   1.07871000e+01,   3.49308000e+00, 
             -3.98778000e+00,   1.07153000e+01,  -1.77118000e+00,  -2.27787000e+00,   9.76213000e+00, 
             -1.79506000e+00,  -2.37659000e+00,   7.77619000e+00,  -1.37214000e+00,  -1.05188000e+00, 
              1.05891000e+01,   6.26897000e+00,  -1.28599000e+01,   2.35248000e+00,   7.88376000e+00, 
             -1.26173000e+01,   3.19670000e+00,   5.93314000e+00,  -1.43722000e+01,   3.02638000e+00, 
              1.06457000e+01,  -1.02421000e+01,   4.15000000e+00,   1.05528000e+01,  -1.00486000e+01, 
              5.93810000e+00,   1.03392000e+01,  -8.77924000e+00,   3.23053000e+00,   6.23760000e+00, 
             -1.14530000e+01,   1.13194000e+01,   4.77504000e+00,  -1.11023000e+01,   9.89856000e+00, 
              6.61751000e+00,  -1.31031000e+01,   1.06878000e+01,   1.09485000e+01,  -9.27327000e+00, 
              9.40295000e+00,   9.65789000e+00,  -1.03877000e+01,   1.00770000e+01,   1.03145000e+01, 
             -7.41106000e+00,   9.46212000e+00,   1.05815000e+01,  -5.51044000e+00,   2.41844000e+00, 
              1.21079000e+01,  -5.21038000e+00,   3.26460000e+00,   8.99306000e+00,  -4.64786000e+00, 
              3.34125000e+00,   6.39798000e+00,  -3.59739000e+00,   4.52854000e+00,   4.65359000e+00, 
             -3.76513000e+00,   3.55459000e+00,   6.19689000e+00,  -3.11010000e+00,   6.42847000e+00, 
              1.02133000e+01,  -4.24698000e+00,   1.15508000e+01,   1.08017000e+01,  -4.61980000e+00, 
              1.31234000e+01,   1.16458000e+01,  -3.58963000e+00,   1.07092000e+01,   5.87698000e+00, 
             -1.88385000e+00,   9.22329000e+00,   7.68895000e+00,  -2.18808000e+00,   1.00545000e+01, 
              5.61741000e+00,  -1.12131000e-01,   9.14764000e+00,  -1.07780000e+01,   2.04944000e+00, 
              2.45627000e+00,  -1.07220000e+01,   2.50220000e+00,   5.48022000e-01,  -1.23133000e+01, 
              2.90826000e+00,   2.86480000e+00,  -6.08414000e+00,   4.52981000e+00,   4.39241000e+00, 
             -7.60486000e+00,   3.38559000e+00,   4.44641000e+00,  -4.65681000e+00,   3.66564000e+00, 
              3.67193000e+00,  -1.08583000e+01,   2.81312000e+00,   1.10639000e+01,  -1.08731000e+01, 
              9.99326000e-01,   1.08243000e+01,  -1.21861000e+01,   3.16418000e+00,   1.01306000e+01, 
             -5.48177000e+00,   4.75634000e+00,   9.89955000e+00,  -5.54830000e+00,   4.29379000e+00, 
              8.12805000e+00,  -7.05025000e+00,   4.54801000e+00,   1.03726000e+01,  -6.29914000e+00, 
              9.54923000e+00,   2.23666000e+00,  -6.21407000e+00,   9.24378000e+00,   4.22183000e-01, 
             -6.37533000e+00,   7.74188000e+00,   2.90386000e+00,  -1.08291000e+01,   1.25346000e+01, 
              3.86289000e+00,  -9.24114000e+00,   1.16743000e+01,   3.13250000e+00,  -1.06079000e+01, 
              1.23737000e+01,   5.71981000e+00,  -6.16044000e+00,   1.00229000e+01,   1.12953000e+01, 
             -6.72163000e+00,   9.95788000e+00,   1.27718000e+01,  -6.12058000e+00,   8.11123000e+00, 
              1.04447000e+01,  -1.04454000e+01,   1.21672000e+01,   9.21561000e+00,  -1.06409000e+01, 
              1.38393000e+01,   9.81328000e+00,  -9.35713000e+00,   1.11267000e+01,   1.00392000e+01, 
             -2.13733000e+00,   1.45888000e+00,   2.73290000e+00,  -1.83011000e+00,   1.66302000e+00, 
              7.28689000e-01,  -1.13182000e+00,   2.56957000e+00,   3.49828000e+00,   2.18234000e+00, 
              4.11560000e+00,   4.03587000e+00,   2.35047000e+00,   4.54474000e+00,   5.86000000e+00, 
              3.74943000e+00,   3.39023000e+00,   3.84854000e+00,  -1.32901000e+00,   2.70129000e+00, 
              1.13978000e+01,  -3.06827000e+00,   3.19802000e+00,   1.05529000e+01,  -3.01041000e-01, 
              4.08800000e+00,   1.07905000e+01,   2.63264000e+00,   5.62736000e+00,   8.88210000e+00, 
              2.64455000e+00,   7.25563000e+00,   9.76610000e+00,   3.50643000e+00,   4.59491000e+00, 
              1.02895000e+01,   2.08576000e+00,   9.20473000e+00,   2.50224000e+00,   2.37288000e+00, 
              7.49850000e+00,   2.87634000e+00,   6.10076000e-01,   1.00364000e+01,   2.93655000e+00, 
             -2.03992000e+00,   1.15471000e+01,   4.36995000e+00,  -3.26309000e+00,   1.05864000e+01, 
              3.42580000e+00,  -1.92786000e+00,   1.14725000e+01,   6.21497000e+00,   2.91786000e+00, 
              9.63658000e+00,   1.15785000e+01,   2.72635000e+00,   9.74716000e+00,   1.33240000e+01, 
              3.97377000e+00,   1.07941000e+01,   1.19343000e+01,  -1.74627000e+00,   1.23987000e+01, 
              9.56004000e+00,  -2.68378000e+00,   1.07839000e+01,   1.02415000e+01,   4.77774000e-03, 
              1.19839000e+01,   9.44214000e+00,   6.41951000e+00,   1.51505000e+00,   2.78718000e+00, 
              6.35741000e+00,   1.76977000e+00,   9.51109000e-01,   6.10574000e+00,  -8.48861000e-02, 
              2.82761000e+00,   1.06927000e+01,   4.59340000e+00,   3.79720000e+00,   9.15464000e+00, 
              3.57833000e+00,   3.25375000e+00,   1.02845000e+01,   6.43401000e+00,   3.56075000e+00, 
              6.46530000e+00,   3.10277000e+00,   1.17966000e+01,   6.61478000e+00,   3.21677000e+00, 
              1.37328000e+01,   7.91025000e+00,   3.74747000e+00,   1.10047000e+01,   1.03199000e+01, 
              4.56867000e+00,   8.79898000e+00,   1.01265000e+01,   4.86108000e+00,   6.86600000e+00, 
              9.95073000e+00,   6.16350000e+00,   9.59380000e+00,   1.05658000e+01,   9.94721000e+00, 
              2.86521000e+00,   1.06491000e+01,   1.04016000e+01,   1.28386000e+00,   1.22887000e+01, 
              1.05022000e+01,   3.16447000e+00,   6.33649000e+00,   1.22681000e+01,   5.10123000e+00, 
              5.00539000e+00,   1.11990000e+01,   4.33961000e+00,   8.50530000e+00,   1.18946000e+01, 
              4.44467000e+00,   1.14193000e+01,   9.35557000e+00,   1.13403000e+01,   1.10446000e+01, 
              9.80944000e+00,   1.31444000e+01,   1.27370000e+01,   1.04488000e+01,   1.06210000e+01, 
              7.02654000e+00,   1.30159000e+01,   1.04795000e+01,   6.79336000e+00,   1.31642000e+01, 
              8.71285000e+00,   8.57155000e+00,   1.21353000e+01,   1.11163000e+01 ]
         </q>
         <p shape='(1, 864)'>
          [   5.72769295e+00,   5.55551105e+00,   1.05164727e+01,  -2.88066274e-01,  -1.21875200e+00, 
              1.84005592e+00,   2.89992787e-01,   1.07263144e+00,  -2.90973801e-01,  -2.12836378e+00, 
              6.87049270e-01,  -1.97148032e+00,  -1.66324468e+00,   1.09731483e+00,  -1.15957180e+00, 
             -6.37635722e-01,   3.61731254e-01,   5.77525763e-01,   4.76213523e+00,  -3.39484580e+00, 
             -4.58866959e+00,   5.72303593e-01,  -7.48519151e-01,  -3.54528937e-01,  -1.23804221e+00, 
             -1.31384171e-01,   4.03752901e-01,   1.03134968e+00,   3.49042383e-01,  -2.33196325e+00, 
             -2.85390343e-01,   8.58560847e-01,   3.34643467e-01,  -9.32329093e-02,  -3.45641178e-01, 
              3.85439181e-02,   2.97433637e-01,  -3.46943148e+00,  -5.43993349e-01,   1.73518919e+00, 
              4.89474239e-01,   1.79621599e+00,  -1.53312463e+00,   1.29477749e+00,   2.37624184e-01, 
             -3.24454867e+00,  -5.11952880e-01,   3.28264667e+00,  -4.34720715e-01,   4.22550693e-01, 
              5.64154493e-01,  -9.68403683e-01,   8.19475559e-01,  -2.62318855e+00,   3.10483910e+00, 