LAMMPS Description
 
         140  atoms
           0  bonds
           0  angles
           0  dihedrals
 
           2  atom types
           0  bond types
           0  angle types
           0  dihedral types
 
         0 17.1404 xlo xhi
         0 19.792  ylo yhi
         0 30.00000 zlo zhi
 
Masses
 
  1 12.0110
  2  1.0080
 
Atoms
 
1     1        4.28590       -9.91741       -0.04100
2     1        5.74916       -9.87790       -0.02660
3     1        3.56174      -11.14109       -0.01050
4     1        6.43046      -11.13204        0.12710
5     1        4.27208       -7.38432       -0.10310
6     1        5.74733       -7.40388       -0.06810
7     1        3.59244       -8.68230       -0.13840
8     1        6.43286       -8.63181       -0.06960
9     1        4.28948       -4.89031       -0.01650
10    1        5.72999       -4.90573       -0.02870
11    1        3.60045       -6.13639       -0.06950
12    1        6.45250       -6.17099       -0.01360
13    1        4.30450       -2.41303        0.10950
14    1        5.71414       -2.47991        0.20830
15    1        3.59320       -3.67852       -0.05520
16    1        6.43691       -3.73365        0.11710
17    1        8.57028       -9.89600        0.00000
18    1       10.01777       -9.90025       -0.09090
19    1        7.90885      -11.11431        0.10150
20    1       10.69749      -11.13635       -0.03110
21    1        8.61210       -7.39092       -0.15720
22    1       10.03227       -7.41348       -0.07280
23    1        7.90273       -8.62926       -0.13790
24    1       10.71703       -8.67134       -0.09350
25    1        8.59361       -4.96104       -0.03330
26    1       10.02886       -4.92024       -0.07320
27    1        7.88122       -6.15953        0.02190
28    1       10.73370       -6.14502       -0.10220
29    1        8.56187       -2.45370        0.02690
30    1        9.99799       -2.46506       -0.04980
31    1        7.87599       -3.71515        0.00800
32    1       10.68543       -3.68536       -0.16010
33    1       12.85600       -9.91741       -0.04100
34    1       14.31926       -9.87790       -0.02660
35    1       12.13184      -11.14109       -0.01050
36    1       15.00056      -11.13204        0.12710
37    1       12.84218       -7.38432       -0.10310
38    1       14.31743       -7.40388       -0.06810
39    1       12.16254       -8.68230       -0.13840
40    1       15.00296       -8.63181       -0.06960
41    1       12.85958       -4.89031       -0.01650
42    1       14.30009       -4.90573       -0.02870
43    1       12.17055       -6.13639       -0.06950
44    1       15.02260       -6.17099       -0.01360
45    1       12.87460       -2.41303        0.10950
46    1       14.28424       -2.47991        0.20830
47    1       12.16330       -3.67852       -0.05520
48    1       15.00701       -3.73365        0.11710
49    1        0.00000       -9.89600        0.00000
50    1        1.44749       -9.90025       -0.09090
51    1       -0.66143      -11.11431        0.10150
52    1        2.12721      -11.13635       -0.03110
53    1        0.04182       -7.39092       -0.15720
54    1        1.46199       -7.41348       -0.07280
55    1       -0.66755       -8.62926       -0.13790
56    1        2.14675       -8.67134       -0.09350
57    1        0.02333       -4.96104       -0.03330
58    1        1.45858       -4.92024       -0.07320
59    1       -0.68906       -6.15953        0.02190
60    1        2.16342       -6.14502       -0.10220
61    1       -0.00841       -2.45370        0.02690
62    1        1.42771       -2.46506       -0.04980
63    1       -0.69429       -3.71515        0.00800
64    1        2.11515       -3.68536       -0.16010
65    1        4.28590       -0.02141       -0.04100
66    1        5.74916        0.01810       -0.02660
67    1        3.56174       -1.24509       -0.01050
68    1        6.43046       -1.23604        0.12710
69    1        4.27208      -17.28032       -0.10310
70    1        5.74733      -17.29988       -0.06810
71    1        3.59244      -18.57830       -0.13840
72    1        6.43286      -18.52781       -0.06960
73    1        4.28948      -14.78631       -0.01650
74    1        5.72999      -14.80173       -0.02870
75    1        3.60045      -16.03239       -0.06950
76    1        6.45250      -16.06699       -0.01360
77    1        4.30450      -12.30903        0.10950
78    1        5.71414      -12.37591        0.20830
79    1        3.59320      -13.57452       -0.05520
80    1        6.43691      -13.62965        0.11710
81    1        8.57028        0.00000        0.00000
82    1       10.01777       -0.00425       -0.09090
83    1        7.90885       -1.21831        0.10150
84    1       10.69749       -1.24035       -0.03110
85    1        8.61210      -17.28692       -0.15720
86    1       10.03227      -17.30948       -0.07280
87    1        7.90273      -18.52526       -0.13790
88    1       10.71703      -18.56733       -0.09350
89    1        8.59361      -14.85704       -0.03330
90    1       10.02886      -14.81624       -0.07320
91    1        7.88122      -16.05553        0.02190
92    1       10.73370      -16.04102       -0.10220
93    1        8.56187      -12.34970        0.02690
94    1        9.99799      -12.36106       -0.04980
95    1        7.87599      -13.61115        0.00800
96    1       10.68543      -13.58136       -0.16010
97    1       12.85600       -0.02141       -0.04100
98    1       14.31926        0.01810       -0.02660
99    1       12.13184       -1.24509       -0.01050
100   1       15.00056       -1.23604        0.12710
101   1       12.84218      -17.28032       -0.10310
102   1       14.31743      -17.29988       -0.06810
103   1       12.16254      -18.57830       -0.13840
104   1       15.00296      -18.52781       -0.06960
105   1       12.85958      -14.78631       -0.01650
106   1       14.30009      -14.80173       -0.02870
107   1       12.17055      -16.03239       -0.06950
108   1       15.02260      -16.06699       -0.01360
109   1       12.87460      -12.30903        0.10950
110   1       14.28424      -12.37591        0.20830
111   1       12.16330      -13.57452       -0.05520
112   1       15.00701      -13.62965        0.11710
113   1        0.00000        0.00000        0.00000
114   1        1.44749       -0.00425       -0.09090
115   1       -0.66143       -1.21831        0.10150
116   1        2.12721       -1.24035       -0.03110
117   1        0.04182      -17.28692       -0.15720
118   1        1.46199      -17.30948       -0.07280
119   1       -0.66755      -18.52526       -0.13790
120   1        2.14675      -18.56733       -0.09350
121   1        0.02333      -14.85704       -0.03330
122   1        1.45858      -14.81624       -0.07320
123   1       -0.68906      -16.05553        0.02190
124   1        2.16342      -16.04102       -0.10220
125   1       -0.00841      -12.34970        0.02690
126   1        1.42771      -12.36106       -0.04980
127   1       -0.69429      -13.61115        0.00800
128   1        2.11515      -13.58136       -0.16010
129   2        8.43090       -7.64856        3.08149
130   1        7.88729       -8.59708        3.13791
131   1        6.49669       -8.60046        3.17688
132   2        5.94591       -7.65476        3.15118
133   1        5.80584       -9.80579        3.24864
134   2        4.71157       -9.80845        3.27940
135   1        6.50544      -11.00776        3.28138
136   2        5.96179      -11.95622        3.33785
137   1        7.89602      -11.00436        3.24246
138   2        8.44654      -11.95016        3.26834
139   1        8.58690       -9.79905        3.17069
140   2        9.68114       -9.79632        3.14005
