3
# CELL(abcABC):   25.29166    25.29166    25.29166    90.00000    90.00000    90.00000  Step:           0  Bead:       0 x_centroid{atomic_unit}  cell{atomic_unit}
       O  1.02130e+00 -1.84220e+00 -4.09276e-01
       H  3.47444e-01 -2.37735e+00 -2.03854e+00
       H  7.99951e-02 -3.68232e-01  1.74386e-01
3
# CELL(abcABC):   25.29166    25.29166    25.29166    90.00000    90.00000    90.00000  Step:           1  Bead:       0 x_centroid{atomic_unit}  cell{atomic_unit}
       O  1.01015e+00 -1.83529e+00 -4.15940e-01
       H  3.50150e-01 -2.36056e+00 -2.01315e+00
       H  8.84384e-02 -3.91940e-01  1.55651e-01
3
# CELL(abcABC):   25.29166    25.29166    25.29166    90.00000    90.00000    90.00000  Step:           2  Bead:       0 x_centroid{atomic_unit}  cell{atomic_unit}
       O  1.04036e+00 -1.85365e+00 -3.97408e-01
       H  3.31991e-01 -2.32593e+00 -1.99392e+00
       H  7.63854e-02 -4.08206e-01  1.17893e-01
3
# CELL(abcABC):   25.29166    25.29166    25.29166    90.00000    90.00000    90.00000  Step:           3  Bead:       0 x_centroid{atomic_unit}  cell{atomic_unit}
       O  1.04023e+00 -1.85291e+00 -3.96654e-01
       H  3.31700e-01 -2.32574e+00 -1.99408e+00
       H  7.68152e-02 -4.09135e-01  1.17296e-01
3
# CELL(abcABC):   25.29166    25.29166    25.29166    90.00000    90.00000    90.00000  Step:           4  Bead:       0 x_centroid{atomic_unit}  cell{atomic_unit}
       O  1.04013e+00 -1.85288e+00 -3.96757e-01
       H  3.31753e-01 -2.32568e+00 -1.99393e+00
       H  7.68611e-02 -4.09220e-01  1.17252e-01
3
# CELL(abcABC):   25.29166    25.29166    25.29166    90.00000    90.00000    90.00000  Step:           5  Bead:       0 x_centroid{atomic_unit}  cell{atomic_unit}
       O  1.04016e+00 -1.85291e+00 -3.96752e-01
       H  3.31740e-01 -2.32565e+00 -1.99390e+00
       H  7.68426e-02 -4.09225e-01  1.17219e-01
3
# CELL(abcABC):   25.29166    25.29166    25.29166    90.00000    90.00000    90.00000  Step:           6  Bead:       0 x_centroid{atomic_unit}  cell{atomic_unit}
       O  1.04018e+00 -1.85292e+00 -3.96727e-01
       H  3.31723e-01 -2.32562e+00 -1.99389e+00
       H  7.68406e-02 -4.09250e-01  1.17184e-01
3
# CELL(abcABC):   25.29166    25.29166    25.29166    90.00000    90.00000    90.00000  Step:           7  Bead:       0 x_centroid{atomic_unit}  cell{atomic_unit}
       O  1.04018e+00 -1.85291e+00 -3.96728e-01
       H  3.31723e-01 -2.32562e+00 -1.99389e+00
       H  7.68418e-02 -4.09253e-01  1.17182e-01
