1
# CELL(abcABC):  188.97261   188.97261   188.97261    90.00000    90.00000    90.00000  Step:           0  Bead:       0 v_centroid{atomic_unit}  cell{atomic_unit}
       H -7.16985e-04  7.75971e-04  1.10779e-04
1
# CELL(abcABC):  188.97261   188.97261   188.97261    90.00000    90.00000    90.00000  Step:           1  Bead:       0 v_centroid{atomic_unit}  cell{atomic_unit}
       H -6.91521e-04  7.48411e-04  1.06844e-04
1
# CELL(abcABC):  188.97261   188.97261   188.97261    90.00000    90.00000    90.00000  Step:           2  Bead:       0 v_centroid{atomic_unit}  cell{atomic_unit}
       H -6.94913e-04  7.52082e-04  1.07368e-04
1
# CELL(abcABC):  188.97261   188.97261   188.97261    90.00000    90.00000    90.00000  Step:           3  Bead:       0 v_centroid{atomic_unit}  cell{atomic_unit}
       H -6.74887e-04  7.30409e-04  1.04274e-04
1
# CELL(abcABC):  188.97261   188.97261   188.97261    90.00000    90.00000    90.00000  Step:           4  Bead:       0 v_centroid{atomic_unit}  cell{atomic_unit}
       H -6.69844e-04  7.24952e-04  1.03495e-04
1
# CELL(abcABC):  188.97261   188.97261   188.97261    90.00000    90.00000    90.00000  Step:           5  Bead:       0 v_centroid{atomic_unit}  cell{atomic_unit}
       H -6.83594e-04  7.39832e-04  1.05620e-04
1
# CELL(abcABC):  188.97261   188.97261   188.97261    90.00000    90.00000    90.00000  Step:           6  Bead:       0 v_centroid{atomic_unit}  cell{atomic_unit}
       H -7.07524e-04  7.65731e-04  1.09317e-04
1
# CELL(abcABC):  188.97261   188.97261   188.97261    90.00000    90.00000    90.00000  Step:           7  Bead:       0 v_centroid{atomic_unit}  cell{atomic_unit}
       H -6.79703e-04  7.35621e-04  1.05018e-04
1
# CELL(abcABC):  188.97261   188.97261   188.97261    90.00000    90.00000    90.00000  Step:           8  Bead:       0 v_centroid{atomic_unit}  cell{atomic_unit}
       H -6.86436e-04  7.42909e-04  1.06059e-04
1
# CELL(abcABC):  188.97261   188.97261   188.97261    90.00000    90.00000    90.00000  Step:           9  Bead:       0 v_centroid{atomic_unit}  cell{atomic_unit}
       H -6.76192e-04  7.31822e-04  1.04476e-04
