#Bead    Energy (eV)
0     -0.05044561999662654
1     -0.049578390404530444
2     -0.047866571551518335
3     -0.04535603108522717
4     -0.04211684741517501
5     -0.038244325231692126
6     -0.03385954053077242
7     -0.029108832322740582
8     -0.024161659575884887
9     -0.0192063451809032
10     -0.014443443072298548
11     -0.01007678016113414
12     -0.0063026063897561775
13     -0.003297673819484865
14     -0.001207382059012617
15     -0.00013529490366178429
16     -0.000135294903661784
17     -0.0012073820590126163
18     -0.003297673819484865
19     -0.0063026063897561775
20     -0.010076780161134143
21     -0.014443443072298544
22     -0.019206345180903184
23     -0.024161659575884877
24     -0.029108832322740582
25     -0.03385954053077243
26     -0.03824432523169211
27     -0.04211684741517502
28     -0.045356031085227184
29     -0.047866571551518335
30     -0.04957839040453044
31     -0.05044561999662653
