3
# CELL(abcABC):   25.29166    25.29166    25.29166    90.00000    90.00000    90.00000  Step:           0  Bead:       0 f_centroid{atomic_unit}  cell{atomic_unit}
       O -7.34145e-03  4.55046e-03 -4.38801e-03
       H  1.78151e-03  1.10616e-02  1.67248e-02
       H  5.55994e-03 -1.56120e-02 -1.23368e-02
3
# CELL(abcABC):   25.29166    25.29166    25.29166    90.00000    90.00000    90.00000  Step:           1  Bead:       0 f_centroid{atomic_unit}  cell{atomic_unit}
       O  8.07279e-03 -4.92465e-03  4.92698e-03
       H -4.28046e-03  5.02028e-03  4.88539e-04
       H -3.79233e-03 -9.56291e-05 -5.41551e-03
3
# CELL(abcABC):   25.29166    25.29166    25.29166    90.00000    90.00000    90.00000  Step:           2  Bead:       0 f_centroid{atomic_unit}  cell{atomic_unit}
       O -4.10005e-04  1.00676e-03  7.23730e-04
       H -1.89070e-04 -5.97556e-05 -3.40776e-04
       H  5.99075e-04 -9.47005e-04 -3.82953e-04
3
# CELL(abcABC):   25.29166    25.29166    25.29166    90.00000    90.00000    90.00000  Step:           3  Bead:       0 f_centroid{atomic_unit}  cell{atomic_unit}
       O -9.05347e-05  1.20232e-05 -1.10870e-04
       H  5.55306e-05  4.98196e-05  1.41625e-04
       H  3.50041e-05 -6.18428e-05 -3.07546e-05
3
# CELL(abcABC):   25.29166    25.29166    25.29166    90.00000    90.00000    90.00000  Step:           4  Bead:       0 f_centroid{atomic_unit}  cell{atomic_unit}
       O  1.13924e-05 -1.03215e-05  2.61284e-06
       H -4.86551e-06  1.10639e-05  7.45155e-06
       H -6.52688e-06 -7.42488e-07 -1.00644e-05
3
# CELL(abcABC):   25.29166    25.29166    25.29166    90.00000    90.00000    90.00000  Step:           5  Bead:       0 f_centroid{atomic_unit}  cell{atomic_unit}
       O -5.23670e-07  1.17613e-05  1.44084e-05
       H -5.87684e-06  2.70191e-06 -4.72354e-06
       H  6.40051e-06 -1.44632e-05 -9.68491e-06
3
# CELL(abcABC):   25.29166    25.29166    25.29166    90.00000    90.00000    90.00000  Step:           6  Bead:       0 f_centroid{atomic_unit}  cell{atomic_unit}
       O -2.41866e-06  8.41420e-07 -2.29230e-06
       H  1.26794e-06  9.85990e-07  3.03867e-06
       H  1.15072e-06 -1.82741e-06 -7.46377e-07
3
# CELL(abcABC):   25.29166    25.29166    25.29166    90.00000    90.00000    90.00000  Step:           7  Bead:       0 f_centroid{atomic_unit}  cell{atomic_unit}
       O  8.85695e-08 -1.78180e-07 -1.05751e-07
       H  1.32175e-08  7.23970e-08  1.11636e-07
       H -1.01787e-07  1.05783e-07 -5.88493e-09
