#Bead    Energy (eV)
0     -0.05962927496723055
1     -0.04950235898602733
2     -0.032204268547558014
3     -0.013716136511694878
4     -0.001662013550036944
5     -0.001662013550036943
6     -0.013716136511694862
7     -0.03220426854755798
8     -0.04950235898602729
9     -0.0596292749672306
