192
# CELL(abcABC):   12.41380    12.41380    12.41380    90.00000    90.00000    90.00000  cell{angstrom}  Traj: positions{angstrom} Step:        1446  Bead:       0 
       O  3.57583e+00  7.27490e+00 -3.50727e+00
       H  4.45616e+00  6.87792e+00 -2.98742e+00
       H  3.78332e+00  8.44514e+00 -3.43723e+00
       O  1.37523e+01 -9.52496e+00 -1.88753e+00
       H  1.38243e+01 -9.02562e+00 -2.84000e+00
       H  1.45720e+01 -9.08868e+00 -1.32527e+00
       O  7.03501e+00  1.41866e+01  2.58809e+00
       H  6.53894e+00  1.38525e+01  3.45533e+00
       H  7.50490e+00  1.33659e+01  2.43221e+00
       O  9.80308e+00  7.84462e+00 -3.22190e+00
       H  9.60088e+00  7.09264e+00 -2.63689e+00
       H  9.36553e+00  7.63202e+00 -4.12702e+00
       O  4.05964e+00  2.53617e+00  1.98595e+01
       H  4.58464e+00  1.76937e+00  1.91331e+01
       H  3.66780e+00  1.97061e+00  2.04805e+01
       O -1.29238e+01  3.02190e-01  2.10631e+01
       H -1.28303e+01  6.43281e-01  2.01127e+01
       H -1.36154e+01 -3.76052e-01  2.08676e+01
       O -1.07289e+01  2.93637e+01  3.43358e+00
       H -1.15000e+01  2.95169e+01  3.91503e+00
       H -1.12639e+01  2.87186e+01  2.71725e+00
       O -6.15899e+00  5.14168e+00  1.40147e+01
       H -5.46002e+00  4.52130e+00  1.44243e+01
       H -7.08907e+00  4.77109e+00  1.45377e+01
       O  2.03041e+01 -7.84414e+00 -6.63160e+00
       H  1.94985e+01 -7.74187e+00 -6.01252e+00
       H  2.09261e+01 -8.57289e+00 -5.72792e+00
       O -3.06216e+00  1.93677e+01  6.28934e+00
       H -3.14212e+00  2.00231e+01  5.53986e+00
       H -3.34543e+00  1.84020e+01  5.84687e+00
       O  3.03472e+00  1.35435e+01  9.77922e+00
       H  2.21571e+00  1.42200e+01  1.00953e+01
       H  2.50615e+00  1.25853e+01  9.85627e+00
       O  8.52162e+00  1.00420e+01  1.06937e+01
       H  8.72302e+00  9.09955e+00  1.01591e+01
       H  9.27286e+00  9.77980e+00  1.14090e+01
       O  9.06194e+00 -1.05562e+01 -1.21721e+01
       H  8.60319e+00 -9.77750e+00 -1.24275e+01
       H  9.60317e+00 -1.07505e+01 -1.28427e+01
       O  1.27197e+01 -9.26500e+00  1.39692e+01
       H  1.18237e+01 -9.13553e+00  1.43645e+01
       H  1.29714e+01 -9.98541e+00  1.32174e+01
       O -1.24723e+00  2.24637e+00  1.08744e+01
       H -6.86185e-01  2.99812e+00  1.10612e+01
       H -6.66853e-01  1.63899e+00  1.04749e+01
       O  8.02869e+00 -8.31717e+00  3.19201e+00
       H  7.73614e+00 -9.21672e+00  3.20584e+00
       H  7.75081e+00 -7.90640e+00  4.05138e+00
       O  1.56805e+01 -1.20210e+01  1.38811e+01
       H  1.62653e+01 -1.11885e+01  1.36371e+01
       H  1.56536e+01 -1.23845e+01  1.48374e+01
       O  1.13597e+01 -7.88231e-01  1.76585e+00
       H  1.20398e+01 -3.45787e-01  1.41703e+00
       H  1.13149e+01 -1.58498e+00  1.29459e+00
       O  6.47851e+00  7.46056e+00 -4.38330e+00
       H  7.24308e+00  7.21577e+00 -4.84940e+00
       H  6.14358e+00  8.28049e+00 -4.88192e+00
       O -8.75745e+00 -2.18109e+00 -2.94759e+00
       H -8.57028e+00 -2.07174e+00 -2.01537e+00
       H -9.77176e+00 -1.87731e+00 -2.97704e+00
       O  2.06328e+01 -1.06788e+00  4.68522e+00
       H  2.03925e+01 -1.02658e+00  3.78060e+00
       H  2.17190e+01 -1.21266e+00  4.59935e+00
       O -1.19422e+01  8.90302e+00 -1.46695e+00
       H -1.09481e+01  8.66181e+00 -1.09641e+00
       H -1.19192e+01  8.15458e+00 -2.23080e+00
       O  9.53169e+00 -6.84215e+00  1.09167e+01
       H  1.03567e+01 -6.73835e+00  1.14798e+01
       H  9.80803e+00 -7.58982e+00  1.02687e+01
       O -1.18495e+01  2.20768e+00  6.61634e+00
       H -1.24183e+01  2.08869e+00  5.85933e+00
       H -1.09302e+01  1.87645e+00  6.50822e+00
       O -2.23747e+01  5.94778e+00  1.06990e+00
       H -2.17072e+01  6.63198e+00  1.17181e+00
       H -2.25474e+01  5.59377e+00  1.96476e+00
       O -1.71974e+00 -1.60841e+00  4.36153e+00
       H -1.39684e+00 -1.52762e+00  3.43956e+00
       H -1.34994e+00 -2.29166e+00  4.77084e+00
       O  1.46856e+00  2.26847e+01  7.79834e+00
       H  3.98512e-01  2.25054e+01  7.87318e+00
       H  1.65947e+00  2.18992e+01  7.14518e+00
       O -5.35394e+00  1.52211e+01  2.13518e+01
       H -6.19438e+00  1.55672e+01  2.08095e+01
       H -5.01008e+00  1.59241e+01  2.19262e+01
       O -2.18272e+00  2.48634e+00  2.65570e+00
       H -2.79131e+00  3.19350e+00  2.71008e+00
       H -2.52528e+00  2.01979e+00  1.74614e+00
       O  1.25879e+01  6.25177e+00 -6.92970e+00
       H  1.26368e+01  5.79930e+00 -5.98724e+00
       H  1.16753e+01  6.81209e+00 -7.06904e+00
       O -8.42902e+00  8.23744e+00  1.98733e+00
       H -7.42731e+00  8.23768e+00  2.33708e+00
       H -8.22561e+00  8.88985e+00  1.34607e+00
       O -1.03014e+01  1.26207e+01  6.32127e+00
       H -1.07051e+01  1.18080e+01  6.62141e+00
       H -9.50035e+00  1.27773e+01  6.91971e+00
       O  5.80435e+00  1.34237e+01 -1.70826e+00
       H  6.31600e+00  1.40684e+01 -2.28636e+00
       H  5.07977e+00  1.31636e+01 -2.10759e+00
       O  3.39802e+00 -6.22658e-01  3.86201e+00
       H  3.57613e+00 -1.66376e+00  4.22681e+00
       H  2.74120e+00 -2.75978e-01  4.80031e+00
       O -1.22469e+01 -7.79999e+00  2.02056e+01
       H -1.22851e+01 -8.70428e+00  1.99094e+01
       H -1.31285e+01 -7.98999e+00  2.06362e+01
       O -1.40573e+01  2.16134e+01  2.52898e+01
       H -1.32632e+01  2.13114e+01  2.47437e+01
       H -1.42610e+01  2.09400e+01  2.57954e+01
       O -9.99429e+00  2.01962e+01  6.12253e+00
       H -9.78628e+00  1.98130e+01  7.00822e+00
       H -1.07282e+01  1.97876e+01  5.64360e+00
       O  1.12909e+01 -1.50668e+01  7.08958e+00
       H  1.12614e+01 -1.59396e+01  7.30749e+00
       H  1.02828e+01 -1.46933e+01  7.37392e+00
       O  3.41955e+00  1.63566e+01  1.17446e+01
       H  3.11377e+00  1.71708e+01  1.21628e+01
       H  3.88176e+00  1.58908e+01  1.24074e+01
       O  6.00532e+00 -2.69326e+00 -6.06794e+00
       H  6.58522e+00 -1.98304e+00 -6.50468e+00
       H  5.24202e+00 -3.03024e+00 -6.75722e+00
       O -1.79233e+01 -1.69916e+01  1.39597e+01
       H -1.79573e+01 -1.65219e+01  1.30289e+01
       H -1.81634e+01 -1.78955e+01  1.38469e+01
       O -4.72657e+00 -4.10380e+00  1.66067e+01
       H -4.79117e+00 -4.21111e+00  1.56692e+01
       H -4.50229e+00 -3.16175e+00  1.68579e+01
       O  1.22923e+01  5.41263e+00  1.20013e+01
       H  1.31443e+01  6.09252e+00  1.20189e+01
       H  1.24042e+01  4.88435e+00  1.27854e+01
       O -1.59248e+00  1.39154e+01 -7.35461e+00
       H -1.67532e+00  1.29438e+01 -7.27653e+00
       H -1.84563e+00  1.42873e+01 -8.39872e+00
       O  4.04984e+00  9.27694e+00  4.70998e+00
       H  4.26788e+00  8.85256e+00  3.68415e+00
       H  3.49134e+00  8.58565e+00  5.06803e+00
       O -2.82962e+00  1.15384e+01  3.29371e+01
       H -3.33315e+00  1.12496e+01  3.37854e+01
       H -3.64185e+00  1.17353e+01  3.23767e+01
       O  4.44663e+00  1.63472e+01  3.35296e+00
       H  3.44648e+00  1.63269e+01  3.43784e+00
       H  4.75435e+00  1.71586e+01  3.62180e+00
       O  1.34045e+01  6.24386e-01 -1.18854e+01
       H  1.44755e+01  4.49598e-01 -1.13596e+01
       H  1.35909e+01  2.73744e-01 -1.27612e+01
       O  8.33833e+00  1.15269e+01  1.86159e+00
       H  9.36009e+00  1.14979e+01  1.69530e+00
       H  7.87348e+00  1.14449e+01  1.11403e+00
       O  6.09578e+00  7.78910e+00 -1.37178e+01
       H  5.24168e+00  7.29872e+00 -1.37077e+01
       H  6.47803e+00  7.88876e+00 -1.46454e+01
       O  5.50009e+00  1.35977e+01  1.71217e+01
       H  4.83526e+00  1.28337e+01  1.68644e+01
       H  4.91990e+00  1.43583e+01  1.69637e+01
       O -7.17539e+00  6.23746e+00  1.70730e+01
       H -6.57486e+00  7.01523e+00  1.72691e+01
       H -7.27732e+00  5.90820e+00  1.79437e+01
       O -5.70781e+00 -1.36751e+01 -2.65696e-01
       H -6.20907e+00 -1.29202e+01 -8.12827e-01
       H -5.21502e+00 -1.41525e+01 -9.09533e-01
       O  5.04812e+00 -7.05951e+00  2.23874e+01
       H  5.98027e+00 -7.10086e+00  2.28435e+01
       H  4.30330e+00 -7.82293e+00  2.29637e+01
       O  1.32501e+01  6.97205e+00  8.93920e+00
       H  1.29925e+01  6.15632e+00  8.64391e+00
       H  1.43019e+01  6.88653e+00  9.19376e+00
       O -8.41461e+00 -2.09607e+00  1.21549e+01
       H -8.64851e+00 -1.16247e+00  1.27094e+01
       H -7.52248e+00 -2.17323e+00  1.23155e+01
       O  5.47161e+00  4.80651e+00 -5.20556e+00
       H  5.46175e+00  5.33246e+00 -4.39245e+00
       H  4.79357e+00  4.14881e+00 -5.19582e+00
       O -4.87823e+00  6.03634e-01  1.90169e+01
       H -4.77580e+00 -8.28363e-02  1.82629e+01
       H -5.66287e+00  1.92327e-01  1.95570e+01
       O  4.98595e+00  2.25823e+00  1.30792e+01
       H  5.91485e+00  2.29408e+00  1.34816e+01
       H  5.22675e+00  1.84792e+00  1.21667e+01
       O  1.02978e+01  3.82312e+00  2.12613e+01
       H  1.06150e+01  3.19667e+00  2.17970e+01
       H  9.81327e+00  3.28829e+00  2.04640e+01
       O  1.96754e+01  1.68648e+01 -2.58117e+01
       H  2.05070e+01  1.74154e+01 -2.58060e+01
       H  1.92581e+01  1.71414e+01 -2.47455e+01
       O  1.72880e+01  1.18316e+01  7.60421e+00
       H  1.69342e+01  1.13662e+01  8.40297e+00
       H  1.73972e+01  1.10797e+01  6.94307e+00
       O -3.17077e+00  2.64790e+00  6.96748e+00
       H -2.53512e+00  2.30132e+00  6.26260e+00
       H -3.88174e+00  1.94015e+00  7.16809e+00
       O -1.12228e+01  1.16659e+01  1.03428e+01
       H -1.18492e+01  1.20511e+01  9.61616e+00
       H -1.14311e+01  1.06823e+01  1.06459e+01
