#Bead    Energy (eV)
0     -0.14343279483760363
1     -0.12327370894308376
2     -0.08492613091085355
3     -0.038363407980217715
4     -0.004824674934570903
5     -0.004824674934570893
6     -0.03836340798021765
7     -0.08492613091085349
8     -0.12327370894308373
9     -0.14343279483760368
