LAMMPS Description
 
         192  atoms
         128  bonds
          64  angles
 
           2  atom types
           1  bond types
           1  angle types
 
         0 32.414 xlo xhi
         0 32.414 ylo yhi
         0 32.414 zlo zhi
 
Masses
 
  1 15.9994
  2  1.0080
 
Bond Coeffs
 
  1    1.78    0.2708585 -0.327738785 0.231328959
 
Angle Coeffs
 
  1    0.0700  107.400000

Atoms
 
 1 1 1 -1.1128     3.57583e+00  7.27490e+00 -3.50727e+00
 2 1 2 0.5564      4.45616e+00  6.87792e+00 -2.98742e+00
 3 1 2 0.5564      3.78332e+00  8.44514e+00 -3.43723e+00
 4 2 1 -1.1128     1.37523e+01 -9.52496e+00 -1.88753e+00
 5 2 2 0.5564      1.38243e+01 -9.02562e+00 -2.84000e+00
 6 2 2 0.5564      1.45720e+01 -9.08868e+00 -1.32527e+00
 7 3 1 -1.1128     7.03501e+00  1.41866e+01  2.58809e+00
 8 3 2 0.5564      6.53894e+00  1.38525e+01  3.45533e+00
 9 3 2 0.5564      7.50490e+00  1.33659e+01  2.43221e+00
 10 4 1 -1.1128    9.80308e+00  7.84462e+00 -3.22190e+00
 11 4 2 0.5564     9.60088e+00  7.09264e+00 -2.63689e+00
 12 4 2 0.5564     9.36553e+00  7.63202e+00 -4.12702e+00
 13 5 1 -1.1128    4.05964e+00  2.53617e+00  1.98595e+01
 14 5 2 0.5564     4.58464e+00  1.76937e+00  1.91331e+01
 15 5 2 0.5564     3.66780e+00  1.97061e+00  2.04805e+01
 16 6 1 -1.1128   -1.29238e+01  3.02190e-01  2.10631e+01
 17 6 2 0.5564    -1.28303e+01  6.43281e-01  2.01127e+01
 18 6 2 0.5564    -1.36154e+01 -3.76052e-01  2.08676e+01
 19 7 1 -1.1128   -1.07289e+01  2.93637e+01  3.43358e+00
 20 7 2 0.5564    -1.15000e+01  2.95169e+01  3.91503e+00
 21 7 2 0.5564    -1.12639e+01  2.87186e+01  2.71725e+00
 22 8 1 -1.1128   -6.15899e+00  5.14168e+00  1.40147e+01
 23 8 2 0.5564    -5.46002e+00  4.52130e+00  1.44243e+01
 24 8 2 0.5564    -7.08907e+00  4.77109e+00  1.45377e+01
 25 9 1 -1.1128    2.03041e+01 -7.84414e+00 -6.63160e+00
 26 9 2 0.5564     1.94985e+01 -7.74187e+00 -6.01252e+00
 27 9 2 0.5564     2.09261e+01 -8.57289e+00 -5.72792e+00
 28 10 1 -1.1128  -3.06216e+00  1.93677e+01  6.28934e+00
 29 10 2 0.5564   -3.14212e+00  2.00231e+01  5.53986e+00
 30 10 2 0.5564   -3.34543e+00  1.84020e+01  5.84687e+00
 31 11 1 -1.1128   3.03472e+00  1.35435e+01  9.77922e+00
 32 11 2 0.5564    2.21571e+00  1.42200e+01  1.00953e+01
 33 11 2 0.5564    2.50615e+00  1.25853e+01  9.85627e+00
 34 12 1 -1.1128   8.52162e+00  1.00420e+01  1.06937e+01
 35 12 2 0.5564    8.72302e+00  9.09955e+00  1.01591e+01
 36 12 2 0.5564    9.27286e+00  9.77980e+00  1.14090e+01
 37 13 1 -1.1128   9.06194e+00 -1.05562e+01 -1.21721e+01
 38 13 2 0.5564    8.60319e+00 -9.77750e+00 -1.24275e+01
 39 13 2 0.5564    9.60317e+00 -1.07505e+01 -1.28427e+01
 40 14 1 -1.1128   1.27197e+01 -9.26500e+00  1.39692e+01
 41 14 2 0.5564    1.18237e+01 -9.13553e+00  1.43645e+01
 42 14 2 0.5564    1.29714e+01 -9.98541e+00  1.32174e+01
 43 15 1 -1.1128  -1.24723e+00  2.24637e+00  1.08744e+01
 44 15 2 0.5564   -6.86185e-01  2.99812e+00  1.10612e+01
 45 15 2 0.5564   -6.66853e-01  1.63899e+00  1.04749e+01
 46 16 1 -1.1128   8.02869e+00 -8.31717e+00  3.19201e+00
 47 16 2 0.5564    7.73614e+00 -9.21672e+00  3.20584e+00
 48 16 2 0.5564    7.75081e+00 -7.90640e+00  4.05138e+00
 49 17 1 -1.1128   1.56805e+01 -1.20210e+01  1.38811e+01
 50 17 2 0.5564    1.62653e+01 -1.11885e+01  1.36371e+01
 51 17 2 0.5564    1.56536e+01 -1.23845e+01  1.48374e+01
 52 18 1 -1.1128   1.13597e+01 -7.88231e-01  1.76585e+00
 53 18 2 0.5564    1.20398e+01 -3.45787e-01  1.41703e+00
 54 18 2 0.5564    1.13149e+01 -1.58498e+00  1.29459e+00
 55 19 1 -1.1128   6.47851e+00  7.46056e+00 -4.38330e+00
 56 19 2 0.5564    7.24308e+00  7.21577e+00 -4.84940e+00
 57 19 2 0.5564    6.14358e+00  8.28049e+00 -4.88192e+00
 58 20 1 -1.1128  -8.75745e+00 -2.18109e+00 -2.94759e+00
 59 20 2 0.5564   -8.57028e+00 -2.07174e+00 -2.01537e+00
 60 20 2 0.5564   -9.77176e+00 -1.87731e+00 -2.97704e+00
 61 21 1 -1.1128   2.06328e+01 -1.06788e+00  4.68522e+00
 62 21 2 0.5564    2.03925e+01 -1.02658e+00  3.78060e+00
 63 21 2 0.5564    2.17190e+01 -1.21266e+00  4.59935e+00
 64 22 1 -1.1128  -1.19422e+01  8.90302e+00 -1.46695e+00
 65 22 2 0.5564   -1.09481e+01  8.66181e+00 -1.09641e+00
 66 22 2 0.5564   -1.19192e+01  8.15458e+00 -2.23080e+00
 67 23 1 -1.1128   9.53169e+00 -6.84215e+00  1.09167e+01
 68 23 2 0.5564    1.03567e+01 -6.73835e+00  1.14798e+01
 69 23 2 0.5564    9.80803e+00 -7.58982e+00  1.02687e+01
 70 24 1 -1.1128  -1.18495e+01  2.20768e+00  6.61634e+00
 71 24 2 0.5564   -1.24183e+01  2.08869e+00  5.85933e+00
 72 24 2 0.5564   -1.09302e+01  1.87645e+00  6.50822e+00
 73 25 1 -1.1128  -2.23747e+01  5.94778e+00  1.06990e+00
 74 25 2 0.5564   -2.17072e+01  6.63198e+00  1.17181e+00
 75 25 2 0.5564   -2.25474e+01  5.59377e+00  1.96476e+00
 76 26 1 -1.1128  -1.71974e+00 -1.60841e+00  4.36153e+00
 77 26 2 0.5564   -1.39684e+00 -1.52762e+00  3.43956e+00
 78 26 2 0.5564   -1.34994e+00 -2.29166e+00  4.77084e+00
 79 27 1 -1.1128   1.46856e+00  2.26847e+01  7.79834e+00
 80 27 2 0.5564    3.98512e-01  2.25054e+01  7.87318e+00
 81 27 2 0.5564    1.65947e+00  2.18992e+01  7.14518e+00
 82 28 1 -1.1128  -5.35394e+00  1.52211e+01  2.13518e+01
 83 28 2 0.5564   -6.19438e+00  1.55672e+01  2.08095e+01
 84 28 2 0.5564   -5.01008e+00  1.59241e+01  2.19262e+01
 85 29 1 -1.1128  -2.18272e+00  2.48634e+00  2.65570e+00
 86 29 2 0.5564   -2.79131e+00  3.19350e+00  2.71008e+00
 87 29 2 0.5564   -2.52528e+00  2.01979e+00  1.74614e+00
 88 30 1 -1.1128   1.25879e+01  6.25177e+00 -6.92970e+00
 89 30 2 0.5564    1.26368e+01  5.79930e+00 -5.98724e+00
 90 30 2 0.5564    1.16753e+01  6.81209e+00 -7.06904e+00
 91 31 1 -1.1128  -8.42902e+00  8.23744e+00  1.98733e+00
 92 31 2 0.5564   -7.42731e+00  8.23768e+00  2.33708e+00
 93 31 2 0.5564   -8.22561e+00  8.88985e+00  1.34607e+00
 94 32 1 -1.1128  -1.03014e+01  1.26207e+01  6.32127e+00
 95 32 2 0.5564   -1.07051e+01  1.18080e+01  6.62141e+00
 96 32 2 0.5564   -9.50035e+00  1.27773e+01  6.91971e+00
 97 33 1 -1.1128   5.80435e+00  1.34237e+01 -1.70826e+00
 98 33 2 0.5564    6.31600e+00  1.40684e+01 -2.28636e+00
 99 33 2 0.5564    5.07977e+00  1.31636e+01 -2.10759e+00
 100 34 1 -1.1128  3.39802e+00 -6.22658e-01  3.86201e+00
 101 34 2 0.5564   3.57613e+00 -1.66376e+00  4.22681e+00
 102 34 2 0.5564   2.74120e+00 -2.75978e-01  4.80031e+00
 103 35 1 -1.1128 -1.22469e+01 -7.79999e+00  2.02056e+01
 104 35 2 0.5564  -1.22851e+01 -8.70428e+00  1.99094e+01
 105 35 2 0.5564  -1.31285e+01 -7.98999e+00  2.06362e+01
 106 36 1 -1.1128 -1.40573e+01  2.16134e+01  2.52898e+01
 107 36 2 0.5564  -1.32632e+01  2.13114e+01  2.47437e+01
 108 36 2 0.5564  -1.42610e+01  2.09400e+01  2.57954e+01
 109 37 1 -1.1128 -9.99429e+00  2.01962e+01  6.12253e+00
 110 37 2 0.5564  -9.78628e+00  1.98130e+01  7.00822e+00
 111 37 2 0.5564  -1.07282e+01  1.97876e+01  5.64360e+00
 112 38 1 -1.1128  1.12909e+01 -1.50668e+01  7.08958e+00
 113 38 2 0.5564   1.12614e+01 -1.59396e+01  7.30749e+00
 114 38 2 0.5564   1.02828e+01 -1.46933e+01  7.37392e+00
 115 39 1 -1.1128  3.41955e+00  1.63566e+01  1.17446e+01
 116 39 2 0.5564   3.11377e+00  1.71708e+01  1.21628e+01
 117 39 2 0.5564   3.88176e+00  1.58908e+01  1.24074e+01
 118 40 1 -1.1128  6.00532e+00 -2.69326e+00 -6.06794e+00
 119 40 2 0.5564   6.58522e+00 -1.98304e+00 -6.50468e+00
 120 40 2 0.5564   5.24202e+00 -3.03024e+00 -6.75722e+00
 121 41 1 -1.1128 -1.79233e+01 -1.69916e+01  1.39597e+01
 122 41 2 0.5564  -1.79573e+01 -1.65219e+01  1.30289e+01
 123 41 2 0.5564  -1.81634e+01 -1.78955e+01  1.38469e+01
 124 42 1 -1.1128 -4.72657e+00 -4.10380e+00  1.66067e+01
 125 42 2 0.5564  -4.79117e+00 -4.21111e+00  1.56692e+01
 126 42 2 0.5564  -4.50229e+00 -3.16175e+00  1.68579e+01
 127 43 1 -1.1128  1.22923e+01  5.41263e+00  1.20013e+01
 128 43 2 0.5564   1.31443e+01  6.09252e+00  1.20189e+01
 129 43 2 0.5564   1.24042e+01  4.88435e+00  1.27854e+01
 130 44 1 -1.1128 -1.59248e+00  1.39154e+01 -7.35461e+00
 131 44 2 0.5564  -1.67532e+00  1.29438e+01 -7.27653e+00
 132 44 2 0.5564  -1.84563e+00  1.42873e+01 -8.39872e+00
 133 45 1 -1.1128  4.04984e+00  9.27694e+00  4.70998e+00
 134 45 2 0.5564   4.26788e+00  8.85256e+00  3.68415e+00
 135 45 2 0.5564   3.49134e+00  8.58565e+00  5.06803e+00
 136 46 1 -1.1128 -2.82962e+00  1.15384e+01  3.29371e+01
 137 46 2 0.5564  -3.33315e+00  1.12496e+01  3.37854e+01
 138 46 2 0.5564  -3.64185e+00  1.17353e+01  3.23767e+01
 139 47 1 -1.1128  4.44663e+00  1.63472e+01  3.35296e+00
 140 47 2 0.5564   3.44648e+00  1.63269e+01  3.43784e+00
 141 47 2 0.5564   4.75435e+00  1.71586e+01  3.62180e+00
 142 48 1 -1.1128  1.34045e+01  6.24386e-01 -1.18854e+01
 143 48 2 0.5564   1.44755e+01  4.49598e-01 -1.13596e+01
 144 48 2 0.5564   1.35909e+01  2.73744e-01 -1.27612e+01
 145 49 1 -1.1128  8.33833e+00  1.15269e+01  1.86159e+00
 146 49 2 0.5564   9.36009e+00  1.14979e+01  1.69530e+00
 147 49 2 0.5564   7.87348e+00  1.14449e+01  1.11403e+00
 148 50 1 -1.1128  6.09578e+00  7.78910e+00 -1.37178e+01
 149 50 2 0.5564   5.24168e+00  7.29872e+00 -1.37077e+01
 150 50 2 0.5564   6.47803e+00  7.88876e+00 -1.46454e+01
 151 51 1 -1.1128  5.50009e+00  1.35977e+01  1.71217e+01
 152 51 2 0.5564   4.83526e+00  1.28337e+01  1.68644e+01
 153 51 2 0.5564   4.91990e+00  1.43583e+01  1.69637e+01
 154 52 1 -1.1128 -7.17539e+00  6.23746e+00  1.70730e+01
 155 52 2 0.5564  -6.57486e+00  7.01523e+00  1.72691e+01
 156 52 2 0.5564  -7.27732e+00  5.90820e+00  1.79437e+01
 157 53 1 -1.1128 -5.70781e+00 -1.36751e+01 -2.65696e-01
 158 53 2 0.5564  -6.20907e+00 -1.29202e+01 -8.12827e-01
 159 53 2 0.5564  -5.21502e+00 -1.41525e+01 -9.09533e-01
 160 54 1 -1.1128  5.04812e+00 -7.05951e+00  2.23874e+01
 161 54 2 0.5564   5.98027e+00 -7.10086e+00  2.28435e+01
 162 54 2 0.5564   4.30330e+00 -7.82293e+00  2.29637e+01
 163 55 1 -1.1128  1.32501e+01  6.97205e+00  8.93920e+00
 164 55 2 0.5564   1.29925e+01  6.15632e+00  8.64391e+00
 165 55 2 0.5564   1.43019e+01  6.88653e+00  9.19376e+00
 166 56 1 -1.1128 -8.41461e+00 -2.09607e+00  1.21549e+01
 167 56 2 0.5564  -8.64851e+00 -1.16247e+00  1.27094e+01
 168 56 2 0.5564  -7.52248e+00 -2.17323e+00  1.23155e+01
 169 57 1 -1.1128  5.47161e+00  4.80651e+00 -5.20556e+00
 170 57 2 0.5564   5.46175e+00  5.33246e+00 -4.39245e+00
 171 57 2 0.5564   4.79357e+00  4.14881e+00 -5.19582e+00
 172 58 1 -1.1128 -4.87823e+00  6.03634e-01  1.90169e+01
 173 58 2 0.5564  -4.77580e+00 -8.28363e-02  1.82629e+01
 174 58 2 0.5564  -5.66287e+00  1.92327e-01  1.95570e+01
 175 59 1 -1.1128  4.98595e+00  2.25823e+00  1.30792e+01
 176 59 2 0.5564   5.91485e+00  2.29408e+00  1.34816e+01
 177 59 2 0.5564   5.22675e+00  1.84792e+00  1.21667e+01
 178 60 1 -1.1128  1.02978e+01  3.82312e+00  2.12613e+01
 179 60 2 0.5564   1.06150e+01  3.19667e+00  2.17970e+01
 180 60 2 0.5564   9.81327e+00  3.28829e+00  2.04640e+01
 181 61 1 -1.1128  1.96754e+01  1.68648e+01 -2.58117e+01
 182 61 2 0.5564   2.05070e+01  1.74154e+01 -2.58060e+01
 183 61 2 0.5564   1.92581e+01  1.71414e+01 -2.47455e+01
 184 62 1 -1.1128  1.72880e+01  1.18316e+01  7.60421e+00
 185 62 2 0.5564   1.69342e+01  1.13662e+01  8.40297e+00
 186 62 2 0.5564   1.73972e+01  1.10797e+01  6.94307e+00
 187 63 1 -1.1128 -3.17077e+00  2.64790e+00  6.96748e+00
 188 63 2 0.5564  -2.53512e+00  2.30132e+00  6.26260e+00
 189 63 2 0.5564  -3.88174e+00  1.94015e+00  7.16809e+00
 190 64 1 -1.1128 -1.12228e+01  1.16659e+01  1.03428e+01
 191 64 2 0.5564  -1.18492e+01  1.20511e+01  9.61616e+00
 192 64 2 0.5564  -1.14311e+01  1.06823e+01  1.06459e+01

Bonds

 1 1 1 2
 2 1 1 3
 3 1 4 5
 4 1 4 6
 5 1 7 8
 6 1 7 9
 7 1 10 11
 8 1 10 12
 9 1 13 14
 10 1 13 15
 11 1 16 17
 12 1 16 18
 13 1 19 20
 14 1 19 21
 15 1 22 23
 16 1 22 24
 17 1 25 26
 18 1 25 27
 19 1 28 29
 20 1 28 30
 21 1 31 32
 22 1 31 33
 23 1 34 35
 24 1 34 36
 25 1 37 38
 26 1 37 39
 27 1 40 41
 28 1 40 42
 29 1 43 44
 30 1 43 45
 31 1 46 47
 32 1 46 48
 33 1 49 50
 34 1 49 51
 35 1 52 53
 36 1 52 54
 37 1 55 56
 38 1 55 57
 39 1 58 59
 40 1 58 60
 41 1 61 62
 42 1 61 63
 43 1 64 65
 44 1 64 66
 45 1 67 68
 46 1 67 69
 47 1 70 71
 48 1 70 72
 49 1 73 74
 50 1 73 75
 51 1 76 77
 52 1 76 78
 53 1 79 80
 54 1 79 81
 55 1 82 83
 56 1 82 84
 57 1 85 86
 58 1 85 87
 59 1 88 89
 60 1 88 90
 61 1 91 92
 62 1 91 93
 63 1 94 95
 64 1 94 96
 65 1 97 98
 66 1 97 99
 67 1 100 101
 68 1 100 102
 69 1 103 104
 70 1 103 105
 71 1 106 107
 72 1 106 108
 73 1 109 110
 74 1 109 111
 75 1 112 113
 76 1 112 114
 77 1 115 116
 78 1 115 117
 79 1 118 119
 80 1 118 120
 81 1 121 122
 82 1 121 123
 83 1 124 125
 84 1 124 126
 85 1 127 128
 86 1 127 129
 87 1 130 131
 88 1 130 132
 89 1 133 134
 90 1 133 135
 91 1 136 137
 92 1 136 138
 93 1 139 140
 94 1 139 141
 95 1 142 143
 96 1 142 144
 97 1 145 146
 98 1 145 147
 99 1 148 149
 100 1 148 150
 101 1 151 152
 102 1 151 153
 103 1 154 155
 104 1 154 156
 105 1 157 158
 106 1 157 159
 107 1 160 161
 108 1 160 162
 109 1 163 164
 110 1 163 165
 111 1 166 167
 112 1 166 168
 113 1 169 170
 114 1 169 171
 115 1 172 173
 116 1 172 174
 117 1 175 176
 118 1 175 177
 119 1 178 179
 120 1 178 180
 121 1 181 182
 122 1 181 183
 123 1 184 185
 124 1 184 186
 125 1 187 188
 126 1 187 189
 127 1 190 191
 128 1 190 192

Angles

 1 1 2 1 3
 2 1 5 4 6
 3 1 8 7 9
 4 1 11 10 12
 5 1 14 13 15
 6 1 17 16 18
 7 1 20 19 21
 8 1 23 22 24
 9 1 26 25 27
 10 1 29 28 30
 11 1 32 31 33
 12 1 35 34 36
 13 1 38 37 39
 14 1 41 40 42
 15 1 44 43 45
 16 1 47 46 48
 17 1 50 49 51
 18 1 53 52 54
 19 1 56 55 57
 20 1 59 58 60
 21 1 62 61 63
 22 1 65 64 66
 23 1 68 67 69
 24 1 71 70 72
 25 1 74 73 75
 26 1 77 76 78
 27 1 80 79 81
 28 1 83 82 84
 29 1 86 85 87
 30 1 89 88 90
 31 1 92 91 93
 32 1 95 94 96
 33 1 98 97 99
 34 1 101 100 102
 35 1 104 103 105
 36 1 107 106 108
 37 1 110 109 111
 38 1 113 112 114
 39 1 116 115 117
 40 1 119 118 120
 41 1 122 121 123
 42 1 125 124 126
 43 1 128 127 129
 44 1 131 130 132
 45 1 134 133 135
 46 1 137 136 138
 47 1 140 139 141
 48 1 143 142 144
 49 1 146 145 147
 50 1 149 148 150
 51 1 152 151 153
 52 1 155 154 156
 53 1 158 157 159
 54 1 161 160 162
 55 1 164 163 165
 56 1 167 166 168
 57 1 170 169 171
 58 1 173 172 174
 59 1 176 175 177
 60 1 179 178 180
 61 1 182 181 183
 62 1 185 184 186
 63 1 188 187 189
 64 1 191 190 192
