7
# cell: 25.29166, 0, 0, 0, 25.29166, 0, 0, 0, 25.29166   Bead:     0   Step:            0
 O   0.54044984       -0.97485007       -0.21657970 
 O   2.92484146       -0.83925223        0.15239669 
 H   0.18385954       -1.25804198       -1.07875142 
 H   1.74328720       -0.90927800       -0.10039502 
 H   3.29706729       -1.59324218        0.64725255 
 H   3.53032937       -0.60813812       -0.57607828 
 H   0.04233158       -0.19485993        0.09228101
7
# cell: 25.29166, 0, 0, 0, 25.29166, 0, 0, 0, 25.29166   Bead:     0   Step:            0
 O   0.55642184       -0.97485007       -0.21657970 
 O   2.92456346       -0.83925223        0.15239669 
 H   0.17235454       -1.25804198       -1.07875142 
 H   1.64325720       -0.90927800       -0.10039502 
 H   3.15706729       -1.59324218        0.64725255 
 H   3.63032937       -0.60813812       -0.57607828 
 H   0.08633158       -0.19485993        0.09228101
