40
Lattice="7.777959852302938 0.0 0.0 0.0 8.041788250493052 0.0 0.0 0.06852382629878888 8.041500465978519" Properties=species:S:1:pos:R:3:forces:R:3 energy=-29615.18517215856 pbc="T T T"
Ba       3.88692966       0.10546680       8.02174678       0.06481854      -0.02213514      -0.04379977
Ba       3.88858014       0.07539099       3.99599999       0.04905356      -0.04237409       0.05360236
Ba       3.88813991       4.12740629       8.01918472      -0.02695365      -0.11981032      -0.00637634
Ba       3.89023996       4.08134987       4.01907019      -0.08095118      -0.02514128      -0.10399367
Ba       7.76958999       0.10387621       8.03764415       0.02261260      -0.04853703      -0.12718013
Ba       0.00245006       0.06410439       3.99469018      -0.05435801       0.01348055       0.05718802
Ba       0.00541890       4.13408600       8.03782849       0.04370053      -0.12150699      -0.15685529
Ba       7.77212560       4.10409030       3.99144988       0.12859475      -0.18779620       0.11165813
Ti       1.94971986       1.99550016       1.94131033       0.07051842       0.29446073      -0.11488537
Ti       1.92932994       2.03440007       5.96007952       0.22576445       0.11976199       0.03121474
Ti       1.94216980       6.02893002       1.93060008       0.15893377      -0.24685136       0.21614827
Ti       1.94614978       6.06167990       5.94755000      -0.12654738      -0.08639087      -0.02730074
Ti       5.83803011       2.00139974       1.93006963      -0.12941545      -0.06777248       0.02340449
Ti       5.83922013       2.04070022       5.95205967      -0.20507119       0.00529956       0.07042483
Ti       5.82974969       6.00022001       1.94221024      -0.13958622       0.31869055       0.02777743
Ti       5.83094983       6.05843960       5.94764023       0.14496677      -0.04282044       0.05921225
O        1.94467975       2.12584010       4.08430005      -0.00718983      -0.12227318       0.07531095
O        1.94887984       2.09543372       0.06073964      -0.03018475      -0.05510723       0.12097220
O        1.93970963       6.17215960       4.08920017       0.01687724      -0.11377903       0.14221929
O        1.94596000       6.10034336       0.07429974       0.02839809       0.05334036      -0.08940626
O        5.81512013       2.10887014       4.09556021       0.18322144       0.13556167      -0.17098093
O        5.82919979       2.10352357       0.07030031       0.09024598      -0.12211377       0.04406254
O        5.83818956       6.13523995       4.08460962       0.02620854      -0.00989078       0.01215180
O        5.83220986       6.10652373       0.07983998       0.00370059      -0.00991906       0.01084054
O        1.94918007       4.14666996       2.05126968      -0.02434295       0.22158024      -0.05325500
O        1.96532012       4.18136977       6.03231966      -0.07878014       0.23392591       0.11303161
O        1.95150024       0.13094973       2.04115989      -0.00758398      -0.06304062      -0.08715808
O        1.93898006       0.16510975       6.07739993       0.00491261      -0.02595092      -0.08782323
O        5.82896956       4.14526993       2.04827984       0.07875675      -0.02391254      -0.04410008
O        5.85900026       4.18096998       6.06823983      -0.14885350       0.13225960      -0.08244319
O        5.82654984       0.13078017       2.03149967       0.06044561       0.10562915       0.02239199
O        5.84568984       0.16529020       6.02881024       0.04111323      -0.03977522       0.23254420
O        0.01353909       2.11258023       2.05037989      -0.25783331       0.05111559       0.07020012
O        0.00801285       2.17764987       6.08828985      -0.03022975      -0.10960484      -0.02973455
O        0.01009968       6.13190010       2.09136973      -0.18387373       0.07775453      -0.18723545
O        0.00116981       6.16475964       6.09683005       0.12866083       0.09221184      -0.06898553
O        3.88930971       2.14407008       2.05299017       0.08226476      -0.13617154       0.02493919
O        3.89914961       2.15339974       6.09546969      -0.07216521      -0.00059315      -0.06229140
O        3.88583996       6.14629010       2.08462002       0.11730427      -0.03636491      -0.10807709
O        3.90447984       6.17955955       6.06129956      -0.16715307       0.02456123       0.13258639
