192
# CELL(abcABC):   23.89910    23.89910    23.89910    90.00000    90.00000    90.00000  Step:       60000  Bead:       0 x_centroid{atomic_unit}  cell{atomic_unit}
       O -3.91571e+01  5.43893e+01 -1.71177e+01
       H -3.97329e+01  5.59923e+01 -1.78152e+01
       H -3.79525e+01  5.34612e+01 -1.83173e+01
       O  3.47612e+01  1.07031e+02 -4.57509e+01
       H  3.40212e+01  1.07619e+02 -4.73188e+01
       H  3.56890e+01  1.08548e+02 -4.51703e+01
       O  2.34755e+01  2.43215e+01 -6.31603e+01
       H  2.30165e+01  2.55922e+01 -6.19869e+01
       H  2.51936e+01  2.41549e+01 -6.28103e+01
       O  5.79685e+01 -4.70563e+01 -8.32902e+01
       H  5.75338e+01 -4.52362e+01 -8.31682e+01
       H  5.81367e+01 -4.76374e+01 -8.15407e+01
       O  5.73507e+01  1.41339e+02  7.00976e+01
       H  5.62499e+01  1.39892e+02  7.02899e+01
       H  5.84377e+01  1.40838e+02  6.86582e+01
       O -4.20698e+01  2.01804e+01  6.31294e+00
       H -4.31173e+01  1.87167e+01  6.16415e+00
       H -4.26733e+01  2.11335e+01  7.81966e+00
       O  1.11423e+01 -1.00597e+01  9.04795e+00
       H  9.64426e+00 -1.06871e+01  8.13221e+00
       H  1.20003e+01 -1.15278e+01  9.46363e+00
       O  1.38219e+01  1.47892e+01  5.24897e+01
       H  1.34853e+01  1.65721e+01  5.26918e+01
       H  1.31388e+01  1.40856e+01  5.40569e+01
       O  7.62771e+01 -4.40908e+01  1.02691e+02
       H  7.49570e+01 -4.29741e+01  1.03134e+02
       H  7.79110e+01 -4.31289e+01  1.02586e+02
       O -5.56088e+01 -9.42623e+01 -5.28790e+01
       H -5.48048e+01 -9.36737e+01 -5.43938e+01
       H -5.46201e+01 -9.57588e+01 -5.24523e+01
       O -9.19997e+01  5.37287e+01  1.41462e+01
       H -9.02332e+01  5.32919e+01  1.36282e+01
       H -9.23605e+01  5.53053e+01  1.35710e+01
       O -9.78111e+01  8.00423e+01  6.88391e+01
       H -9.91450e+01  7.98450e+01  6.74856e+01
       H -9.62149e+01  7.94723e+01  6.80727e+01
       O  8.37037e+00 -6.58671e+01 -3.58932e+01
       H  8.61151e+00 -6.55141e+01 -3.77003e+01
       H  9.48393e+00 -6.45857e+01 -3.51583e+01
       O  9.79969e+01 -6.46466e+01  1.92213e+01
       H  9.84398e+01 -6.61194e+01  2.01367e+01
       H  9.84565e+01 -6.50800e+01  1.74854e+01
       O  6.33188e+00 -5.98610e+00  2.10295e+01
       H  5.26300e+00 -5.95751e+00  1.95257e+01
       H  6.85077e+00 -7.65755e+00  2.10916e+01
       O -6.50005e+01 -4.63284e+01 -2.83922e+01
       H -6.47155e+01 -4.49227e+01 -2.74139e+01
       H -6.37166e+01 -4.75195e+01 -2.78006e+01
       O  1.77774e+01 -3.24049e+01 -5.27385e+01
       H  1.82975e+01 -3.29708e+01 -5.11170e+01
       H  1.72657e+01 -3.06710e+01 -5.24153e+01
       O -2.24952e+01  8.91050e+01 -7.26789e+01
       H -2.29384e+01  9.01562e+01 -7.12471e+01
       H -2.08183e+01  8.95313e+01 -7.33032e+01
       O  9.91060e+01  1.78779e+01  1.66203e+01
       H  9.91455e+01  1.97770e+01  1.64989e+01
       H  9.73363e+01  1.77826e+01  1.68184e+01
       O  1.09698e+02  5.68992e+01 -1.20699e+00
       H  1.08391e+02  5.75302e+01 -5.76013e-02
       H  1.11101e+02  5.68569e+01 -1.19349e-01
       O -2.14403e+01  5.01859e+01 -1.86087e+00
       H -1.99755e+01  4.92662e+01 -2.74944e+00
       H -2.29077e+01  4.93582e+01 -2.52444e+00
       O  3.01277e+00  1.20001e+01  7.50205e+01
       H  3.79534e+00  1.12865e+01  7.35398e+01
       H  1.28813e+00  1.13625e+01  7.51350e+01
       O  1.28754e+01  7.80330e+01 -5.29255e+01
       H  1.34636e+01  7.91186e+01 -5.15525e+01
       H  1.35923e+01  7.63965e+01 -5.25269e+01
       O  1.12808e+02 -2.59190e+01  4.90416e+01
       H  1.12509e+02 -2.42082e+01  4.92496e+01
       H  1.14644e+02 -2.60320e+01  4.91420e+01
       O -7.28190e+01  4.56543e+01  2.58375e+01
       H -7.24164e+01  4.73188e+01  2.63181e+01
       H -7.31854e+01  4.47160e+01  2.74352e+01
       O  3.60611e+01 -2.56531e+01  1.73321e+01
       H  3.77626e+01 -2.50150e+01  1.79096e+01
       H  3.63416e+01 -2.64912e+01  1.57531e+01
       O -2.96865e+01 -1.63847e+01  1.72358e+01
       H -3.14430e+01 -1.60280e+01  1.75848e+01
       H -2.99628e+01 -1.78494e+01  1.61740e+01
       O  4.61719e+01  1.02999e+01  2.85863e+01
       H  4.48871e+01  1.15853e+01  2.85986e+01
       H  4.55286e+01  8.97207e+00  2.76002e+01
       O  9.58065e+01 -2.07672e+01 -2.12061e+01
       H  9.70338e+01 -2.08052e+01 -1.97612e+01
       H  9.67142e+01 -2.07289e+01 -2.27873e+01
       O -5.74970e+00 -7.12430e+01  7.00693e+00
       H -3.99219e+00 -7.12775e+01  7.29286e+00
       H -6.59652e+00 -7.27488e+01  7.72989e+00
       O -9.04225e+01  3.34888e+01  7.06907e+01
       H -8.92152e+01  3.20224e+01  7.04441e+01
       H -9.16032e+01  3.31277e+01  6.94579e+01
       O -1.30406e+00 -4.96711e+01  2.06526e+01
       H -7.66171e-01 -5.01922e+01  2.22571e+01
       H -8.39302e-01 -5.09869e+01  1.95338e+01
       O -5.64183e+01  5.11302e+01  1.05832e+01
       H -5.76280e+01  4.99402e+01  1.10315e+01
       H -5.55776e+01  5.04144e+01  9.21077e+00
       O  8.84571e+00  6.59916e+01 -1.35045e+01
       H  9.71803e+00  6.45537e+01 -1.40684e+01
       H  8.24421e+00  6.69322e+01 -1.49347e+01
       O -7.92083e+01 -4.50229e+01 -4.51653e+01
       H -7.81622e+01 -4.36067e+01 -4.54767e+01
       H -7.85988e+01 -4.56778e+01 -4.35637e+01
       O  4.22176e+01 -4.53410e+01 -3.33284e+01
       H  4.10249e+01 -4.54781e+01 -3.46970e+01
       H  4.38330e+01 -4.51855e+01 -3.42014e+01
       O  3.53898e+01  2.85373e+01  5.10160e+01
       H  3.48042e+01  2.68228e+01  5.07341e+01
       H  3.72019e+01  2.80117e+01  5.11553e+01
       O -2.58410e+01  6.16455e+01  8.28202e+01
       H -2.74015e+01  6.06340e+01  8.29256e+01
       H -2.63438e+01  6.33417e+01  8.32980e+01
       O -3.18748e+01  1.39764e+02  1.05174e+02
       H -3.27780e+01  1.39370e+02  1.03677e+02
       H -3.29553e+01  1.38869e+02  1.06288e+02
       O  3.78582e+01  1.43161e+01  3.95287e+01
       H  3.88347e+01  1.46406e+01  4.09850e+01
       H  3.91832e+01  1.37104e+01  3.84463e+01
       O  4.89459e+01  7.42594e+00 -1.54206e+01
       H  4.94219e+01  8.63300e+00 -1.40481e+01
       H  4.83206e+01  8.50221e+00 -1.67659e+01
       O  1.81288e+02 -3.89855e+01  1.03140e+01
       H  1.81869e+02 -4.05715e+01  9.75502e+00
       H  1.80699e+02 -3.93657e+01  1.20522e+01
       O -2.66376e+01 -1.05993e+01 -2.46927e+01
       H -2.64211e+01 -1.21384e+01 -2.56189e+01
       H -2.53359e+01 -9.40729e+00 -2.51746e+01
       O  5.27753e+00 -2.39079e+01 -3.72773e+01
       H  6.96883e+00 -2.40759e+01 -3.65508e+01
       H  5.18793e+00 -2.24020e+01 -3.82215e+01
       O  2.01677e+01 -1.75400e+01  7.34585e+01
       H  2.11822e+01 -1.89817e+01  7.34947e+01
       H  2.06241e+01 -1.67171e+01  7.19101e+01
       O  2.32678e+01 -6.76574e+01 -1.18903e+01
       H  2.48029e+01 -6.71190e+01 -1.09705e+01
       H  2.31461e+01 -6.62215e+01 -1.30215e+01
       O -3.65825e+01 -6.27729e+01 -8.08685e+01
       H -3.70637e+01 -6.12547e+01 -7.99786e+01
       H -3.62145e+01 -6.39817e+01 -7.95486e+01
       O -1.38364e+01  2.30080e+01  2.73274e+01
       H -1.40814e+01  2.24660e+01  2.56854e+01
       H -1.54775e+01  2.26165e+01  2.82322e+01
       O -5.10885e+01  4.27101e+01  3.56934e+01
       H -4.99949e+01  4.36679e+01  3.46734e+01
       H -5.26634e+01  4.33286e+01  3.49564e+01
       O -6.89974e+01  6.39592e+01  6.63157e+00
       H -6.94725e+01  6.29600e+01  8.05161e+00
       H -6.92111e+01  6.28110e+01  5.35483e+00
       O -4.40733e+01  2.30176e+01 -8.14207e+00
       H -4.28112e+01  2.38139e+01 -7.21934e+00
       H -4.37488e+01  2.32234e+01 -9.94275e+00
       O  1.28243e+01  1.90103e+01  3.72773e+01
       H  1.13443e+01  1.85947e+01  3.62359e+01
       H  1.34318e+01  1.74389e+01  3.79209e+01
       O  1.75171e+01  1.15531e+01  1.79972e+02
       H  1.65546e+01  1.05035e+01  1.78754e+02
       H  1.80245e+01  1.01964e+01  1.81184e+02
       O  8.58804e+00 -1.06034e+01  4.56613e+01
       H  7.31014e+00 -1.20321e+01  4.56562e+01
       H  9.10142e+00 -1.05395e+01  4.39677e+01
       O -6.97320e+01  1.07820e+01 -8.32268e+01
       H -6.82553e+01  1.16685e+01 -8.28626e+01
       H -7.10711e+01  1.19663e+01 -8.34171e+01
       O  8.73319e+00  6.12437e+01  1.12288e+02
       H  1.03367e+01  6.22246e+01  1.12156e+02
       H  7.56296e+00  6.18375e+01  1.10924e+02
       O -1.94035e+00 -5.29457e+01  3.00220e+01
       H -2.88542e+00 -5.44637e+01  2.96764e+01
       H -2.93274e-01 -5.36595e+01  2.98812e+01
       O -1.50475e+01  2.96218e+01  9.39701e+01
       H -1.41618e+01  2.94130e+01  9.55056e+01
       H -1.37254e+01  2.98535e+01  9.26909e+01
       O  9.38921e+01  4.16354e+01 -6.65372e+00
       H  9.35343e+01  4.21941e+01 -8.26817e+00
       H  9.26535e+01  4.03668e+01 -6.06695e+00
       O  6.65773e+01 -3.37160e+01  7.59806e+01
       H  6.48470e+01 -3.32445e+01  7.59278e+01
       H  6.69446e+01 -3.37184e+01  7.41303e+01
       O -6.20606e+00  2.05800e+01  4.40678e+01
       H -6.63923e+00  2.13065e+01  4.58097e+01
       H -4.39715e+00  2.09273e+01  4.39378e+01
       O  1.72817e+02  1.50657e+01 -1.10094e+01
       H  1.74006e+02  1.59913e+01 -1.20286e+01
       H  1.72059e+02  1.63240e+01 -9.92278e+00
       O -6.40211e+01  8.33664e+01 -4.19121e+01
       H -6.57245e+01  8.38770e+01 -4.25574e+01
       H -6.28569e+01  8.32965e+01 -4.33335e+01
       O -5.76774e+01 -2.79861e+01  4.63350e+00
       H -5.63338e+01 -2.73960e+01  3.63267e+00
       H -5.91205e+01 -2.70857e+01  4.06437e+00
