#Bead    Energy (eV)
0     0.10435200024310802
1     0.10458012014029815
2     0.10499336099755491
3     0.1055903684118013
4     0.10636890870065621
5     0.10732582252175506
6     0.1084567564170259
7     0.10975608515312206
8     0.1112166964706233
9     0.11282965375699106
10     0.11458365648787314
11     0.11646496885951468
12     0.11845732347460955
13     0.12054171034796743
14     0.12269568388566807
15     0.12489306789087287
16     0.12710456437010614
17     0.12930135770236537
18     0.13145910540160105
19     0.13355346652224132
20     0.1355604730428064
21     0.13745689822787427
22     0.13922015616731154
23     0.14082815062633774
24     0.14226026905521147
25     0.14349668290480055
26     0.1445186751021504
27     0.1453095567724877
28     0.1458551691373635
29     0.14614421061539154
30     0.1461684237444241
31     0.14592731087197264
32     0.1454364904448951
33     0.14471663894713344
34     0.14379070378611125
35     0.14268312766495347
36     0.14141910229929616
37     0.1400242568593778
38     0.13852405524475148
39     0.13693594937009554
40     0.1352682259843752
41     0.133530088851709
42     0.13173228208063156
43     0.12988686223111062
44     0.1280064142542446
45     0.126104251696744
46     0.12419434117840034
47     0.12229117015464314
48     0.12041038086778931
49     0.11857101694303926
50     0.11679097652800079
51     0.11508603372495745
52     0.11346972772486705
53     0.1119535425369769
54     0.11054725529955563
55     0.10925917485864142
56     0.10809619024229951
57     0.10706395108882347
58     0.1061670534108405
59     0.10540916889161556
60     0.1047931438779291
61     0.10432111251010957
62     0.1039946237220952
63     0.10381459623806397
