#Bead    Energy (eV)
0     0.13344076815778944
1     0.13350597554029547
2     0.13363575948820305
3     0.1338288632110306
4     0.134083413638433
5     0.13439693597364508
6     0.13476637311767872
7     0.13518810997043584
8     0.13565800260347652
9     0.13617141228015153
10     0.13672324427064092
11     0.13730799137215854
12     0.13791978199771937
13     0.13855243264065165
14     0.13919950445753013
15     0.13985436364001252
16     0.14051024516837346
17     0.1411603194579342
18     0.14179775445635487
19     0.14241568519506387
20     0.14300728328348783
21     0.14356589508503978
22     0.1440851172115186
23     0.14455886944443586
24     0.14498146573989762
25     0.14534768216272217
26     0.1456528205872441
27     0.1458927670262171
28     0.14606404350729021
29     0.14616385250803637
30     0.14619011308405766
31     0.1461415902639429
32     0.14601937534911896
33     0.1458265254311242
34     0.145566805530133
35     0.14524457610961072
36     0.14486470916780467
37     0.14443250216916687
38     0.14395359154023069
39     0.1434338673450423
40     0.14287939061258836
41     0.14229631461851475
42     0.14169081123268026
43     0.1410690032391952
44     0.14043690332361008
45     0.1398003602086623
46     0.1391650122122337
47     0.13853604243049505
48     0.13791761692261295
49     0.13731369340396973
50     0.13672823296400757
51     0.13616515878196916
52     0.13562831507462428
53     0.13512142682802297
54     0.13464806082706757
55     0.13421158845277156
56     0.13381515066910485
57     0.13346162557208227
58     0.13315359882371663
59     0.13289333724556276
60     0.13268276580079472
61     0.13252344815140743
62     0.13241657093852707
63     0.1323629318989296
