#Bead    Energy (eV)
0     -0.24283086521044964
1     -0.21174748390225537
2     -0.15621083044375125
3     -0.1220275828553612
4     -0.06572974443447582
5     -0.0005653268409230176
6     -0.1307782923028487
