#Bead    Energy (eV)
0     -0.23899169196151057
1     -0.21966975921117468
2     -0.1725347459632773
3     -0.1467397785696692
4     -0.09556016817925252
5     -0.00909918535192764
6     -0.09312017716271859
