#Bead    Energy (eV)
0     -0.2579494454785468
1     -0.14812004076343696
2     -0.057999646935594104
3     -0.015787672634728547
4     -0.000276888936600102
5     -0.05715997839942185
6     -0.2397620905948746
