#Bead    Energy (eV)
0     -0.2552731190743405
1     -0.16957069706756903
2     -0.0852176681015533
3     -0.0374374257766407
4     -0.0030590188972548426
5     -0.0333467932121127
6     -0.2227092783443873
