#Bead    Energy (eV)
0     -0.2470115335609498
1     -0.2012568572523422
2     -0.1361581092148061
3     -0.09427676328910554
4     -0.03825223515818825
5     -0.0023227956052009925
6     -0.16680324642196978
