#Bead    Energy (eV)
0     -0.2582689033808767
1     -0.1236363338220309
2     -0.033428408910484195
3     -0.002972778551782508
4     -0.007253591306453274
5     -0.08239869321601881
6     -0.2503324583962581
