#Bead    Energy (eV)
0     -0.25140951423120245
1     -0.18709044621312418
2     -0.11169963167121001
3     -0.06450197003517176
4     -0.01598178706502188
5     -0.014188109314220076
6     -0.19859331948493966
