4
# CELL(abcABC): 1322.94304  1322.94304  1322.94304    90.00000    90.00000    90.00000  Step:     1000000  Bead:       0 positions{angstrom}  cell{angstrom}
       E  5.89064e+01 -5.45083e+01 -5.47753e+00
       E -3.15421e+01  1.94299e+01 -5.26363e+01
       E -3.85106e+01 -3.28581e+01  9.33089e+00
       E  5.71575e+00 -1.60455e+01  2.82257e+01
