#Bead    Energy (eV)
0     0.6098544310340657
1     0.6130953581011465
2     0.6190873721699829
3     0.6268843839471507
4     0.6352076853407395
5     0.6426694993034486
6     0.6480720019780557
7     0.6506901666390463
8     0.6504165079339692
9     0.6476977918440724
10     0.6433042817577577
11     0.6380563131629223
12     0.6326283713708267
13     0.6274771819466826
14     0.6228662390023613
15     0.6189302099210392
16     0.6157350768546697
17     0.6133160769422508
18     0.6116946468316607
19     0.6108827781776094
