#Bead    Energy (eV)
0     0.5909395041432897
1     0.5972207971790289
2     0.6086204496221265
3     0.6228791685038432
4     0.6369748708908862
5     0.647890404436121
6     0.6536147373307397
7     0.653778521410284
8     0.6494651137211738
9     0.6424073472229832
10     0.6342026293267741
11     0.625946088261958
12     0.6182407806025413
13     0.6113625340353046
14     0.6054181068832128
15     0.6004438047528414
16     0.5964526025266124
17     0.5934517321078009
18     0.5914471458446473
19     0.5904435430719474
