1
# CELL(abcABC):  188.97261   188.97261   188.97261    90.00000    90.00000    90.00000  Step:           0  Bead:       3 forces_spring{atomic_unit}  cell{atomic_unit}
       H  0.00000e+00  0.00000e+00  0.00000e+00
1
# CELL(abcABC):  188.97261   188.97261   188.97261    90.00000    90.00000    90.00000  Step:           1  Bead:       3 forces_spring{atomic_unit}  cell{atomic_unit}
       H  8.71212e-04  1.26558e-03 -1.00780e-03
1
# CELL(abcABC):  188.97261   188.97261   188.97261    90.00000    90.00000    90.00000  Step:           2  Bead:       3 forces_spring{atomic_unit}  cell{atomic_unit}
       H  1.30961e-03  2.53861e-03  3.08447e-04
1
# CELL(abcABC):  188.97261   188.97261   188.97261    90.00000    90.00000    90.00000  Step:           3  Bead:       3 forces_spring{atomic_unit}  cell{atomic_unit}
       H  1.60958e-03  6.90820e-03  4.43305e-03
1
# CELL(abcABC):  188.97261   188.97261   188.97261    90.00000    90.00000    90.00000  Step:           4  Bead:       3 forces_spring{atomic_unit}  cell{atomic_unit}
       H  2.66257e-03  1.06707e-02  7.06634e-03
1
# CELL(abcABC):  188.97261   188.97261   188.97261    90.00000    90.00000    90.00000  Step:           5  Bead:       3 forces_spring{atomic_unit}  cell{atomic_unit}
       H  2.65721e-03  1.26511e-02  8.99808e-03
1
# CELL(abcABC):  188.97261   188.97261   188.97261    90.00000    90.00000    90.00000  Step:           6  Bead:       3 forces_spring{atomic_unit}  cell{atomic_unit}
       H  3.59526e-03  1.52103e-02  8.73270e-03
1
# CELL(abcABC):  188.97261   188.97261   188.97261    90.00000    90.00000    90.00000  Step:           7  Bead:       3 forces_spring{atomic_unit}  cell{atomic_unit}
       H  5.67734e-03  1.68869e-02  8.15915e-03
1
# CELL(abcABC):  188.97261   188.97261   188.97261    90.00000    90.00000    90.00000  Step:           8  Bead:       3 forces_spring{atomic_unit}  cell{atomic_unit}
       H  6.83119e-03  1.95865e-02  7.77954e-03
1
# CELL(abcABC):  188.97261   188.97261   188.97261    90.00000    90.00000    90.00000  Step:           9  Bead:       3 forces_spring{atomic_unit}  cell{atomic_unit}
       H  7.05573e-03  2.23843e-02  6.88049e-03
