1
# CELL(abcABC):  188.97261   188.97261   188.97261    90.00000    90.00000    90.00000  Step:           0  Bead:       1 forces{atomic_unit}  cell{atomic_unit}
       H  0.00000e+00  0.00000e+00  0.00000e+00
1
# CELL(abcABC):  188.97261   188.97261   188.97261    90.00000    90.00000    90.00000  Step:           1  Bead:       1 forces{atomic_unit}  cell{atomic_unit}
       H  7.31250e-05 -6.45044e-06  1.26365e-03
1
# CELL(abcABC):  188.97261   188.97261   188.97261    90.00000    90.00000    90.00000  Step:           2  Bead:       1 forces{atomic_unit}  cell{atomic_unit}
       H -2.26807e-03  3.85147e-04  3.19895e-03
1
# CELL(abcABC):  188.97261   188.97261   188.97261    90.00000    90.00000    90.00000  Step:           3  Bead:       1 forces{atomic_unit}  cell{atomic_unit}
       H -3.95671e-04  1.64630e-03  6.45008e-03
1
# CELL(abcABC):  188.97261   188.97261   188.97261    90.00000    90.00000    90.00000  Step:           4  Bead:       1 forces{atomic_unit}  cell{atomic_unit}
       H  1.76399e-03  3.81636e-03  1.08959e-02
1
# CELL(abcABC):  188.97261   188.97261   188.97261    90.00000    90.00000    90.00000  Step:           5  Bead:       1 forces{atomic_unit}  cell{atomic_unit}
       H  4.22564e-03  7.66396e-03  1.33439e-02
1
# CELL(abcABC):  188.97261   188.97261   188.97261    90.00000    90.00000    90.00000  Step:           6  Bead:       1 forces{atomic_unit}  cell{atomic_unit}
       H  7.18376e-03  1.12693e-02  1.41715e-02
1
# CELL(abcABC):  188.97261   188.97261   188.97261    90.00000    90.00000    90.00000  Step:           7  Bead:       1 forces{atomic_unit}  cell{atomic_unit}
       H  6.80890e-03  1.00904e-02  1.42638e-02
1
# CELL(abcABC):  188.97261   188.97261   188.97261    90.00000    90.00000    90.00000  Step:           8  Bead:       1 forces{atomic_unit}  cell{atomic_unit}
       H  8.57212e-03  7.98628e-03  1.36541e-02
1
# CELL(abcABC):  188.97261   188.97261   188.97261    90.00000    90.00000    90.00000  Step:           9  Bead:       1 forces{atomic_unit}  cell{atomic_unit}
       H  1.15144e-02  4.87135e-03  8.79734e-03
