1
# CELL(abcABC):  188.97261   188.97261   188.97261    90.00000    90.00000    90.00000  Step:           0  Bead:       1 forces_spring{atomic_unit}  cell{atomic_unit}
       H  0.00000e+00  0.00000e+00  0.00000e+00
1
# CELL(abcABC):  188.97261   188.97261   188.97261    90.00000    90.00000    90.00000  Step:           1  Bead:       1 forces_spring{atomic_unit}  cell{atomic_unit}
       H -7.44731e-05 -4.79841e-04  1.22991e-03
1
# CELL(abcABC):  188.97261   188.97261   188.97261    90.00000    90.00000    90.00000  Step:           2  Bead:       1 forces_spring{atomic_unit}  cell{atomic_unit}
       H -1.58732e-03 -7.09729e-04  2.77790e-03
1
# CELL(abcABC):  188.97261   188.97261   188.97261    90.00000    90.00000    90.00000  Step:           3  Bead:       1 forces_spring{atomic_unit}  cell{atomic_unit}
       H -8.07658e-04 -1.61109e-06  4.76162e-03
1
# CELL(abcABC):  188.97261   188.97261   188.97261    90.00000    90.00000    90.00000  Step:           4  Bead:       1 forces_spring{atomic_unit}  cell{atomic_unit}
       H -7.12717e-04  1.42372e-03  7.19811e-03
1
# CELL(abcABC):  188.97261   188.97261   188.97261    90.00000    90.00000    90.00000  Step:           5  Bead:       1 forces_spring{atomic_unit}  cell{atomic_unit}
       H -2.63143e-04  3.87170e-03  8.49319e-03
1
# CELL(abcABC):  188.97261   188.97261   188.97261    90.00000    90.00000    90.00000  Step:           6  Bead:       1 forces_spring{atomic_unit}  cell{atomic_unit}
       H  1.25470e-03  5.94589e-03  8.70875e-03
1
# CELL(abcABC):  188.97261   188.97261   188.97261    90.00000    90.00000    90.00000  Step:           7  Bead:       1 forces_spring{atomic_unit}  cell{atomic_unit}
       H  1.00610e-03  5.33997e-03  8.79127e-03
1
# CELL(abcABC):  188.97261   188.97261   188.97261    90.00000    90.00000    90.00000  Step:           8  Bead:       1 forces_spring{atomic_unit}  cell{atomic_unit}
       H  2.05526e-03  4.95392e-03  8.60128e-03
1
# CELL(abcABC):  188.97261   188.97261   188.97261    90.00000    90.00000    90.00000  Step:           9  Bead:       1 forces_spring{atomic_unit}  cell{atomic_unit}
       H  4.36308e-03  4.29777e-03  5.94921e-03
