1
# CELL(abcABC):  188.97261   188.97261   188.97261    90.00000    90.00000    90.00000  Step:           0  Bead:       2 forces_spring{atomic_unit}  cell{atomic_unit}
       H  0.00000e+00  0.00000e+00  0.00000e+00
1
# CELL(abcABC):  188.97261   188.97261   188.97261    90.00000    90.00000    90.00000  Step:           1  Bead:       2 forces_spring{atomic_unit}  cell{atomic_unit}
       H  8.88730e-04  1.51767e-03 -2.00205e-04
1
# CELL(abcABC):  188.97261   188.97261   188.97261    90.00000    90.00000    90.00000  Step:           2  Bead:       2 forces_spring{atomic_unit}  cell{atomic_unit}
       H  3.28064e-03  2.55837e-03 -1.73630e-03
1
# CELL(abcABC):  188.97261   188.97261   188.97261    90.00000    90.00000    90.00000  Step:           3  Bead:       2 forces_spring{atomic_unit}  cell{atomic_unit}
       H  4.35661e-03  2.21506e-03 -2.32490e-03
1
# CELL(abcABC):  188.97261   188.97261   188.97261    90.00000    90.00000    90.00000  Step:           4  Bead:       2 forces_spring{atomic_unit}  cell{atomic_unit}
       H  6.13492e-03  1.80397e-03 -2.21078e-03
1
# CELL(abcABC):  188.97261   188.97261   188.97261    90.00000    90.00000    90.00000  Step:           5  Bead:       2 forces_spring{atomic_unit}  cell{atomic_unit}
       H  7.72810e-03 -1.15658e-04 -1.57382e-03
1
# CELL(abcABC):  188.97261   188.97261   188.97261    90.00000    90.00000    90.00000  Step:           6  Bead:       2 forces_spring{atomic_unit}  cell{atomic_unit}
       H  6.16518e-03 -5.11721e-04 -1.13040e-03
1
# CELL(abcABC):  188.97261   188.97261   188.97261    90.00000    90.00000    90.00000  Step:           7  Bead:       2 forces_spring{atomic_unit}  cell{atomic_unit}
       H  6.07208e-03  5.66654e-04 -1.20118e-03
1
# CELL(abcABC):  188.97261   188.97261   188.97261    90.00000    90.00000    90.00000  Step:           8  Bead:       2 forces_spring{atomic_unit}  cell{atomic_unit}
       H  4.07587e-03  5.72829e-04 -1.38750e-03
1
# CELL(abcABC):  188.97261   188.97261   188.97261    90.00000    90.00000    90.00000  Step:           9  Bead:       2 forces_spring{atomic_unit}  cell{atomic_unit}
       H  5.11207e-04 -2.38615e-04  3.54056e-04
