3
# CELL(abcABC):  35.23300  35.23300  35.23300   90.0  90.0  90.0  Step:  3  Bead:   0  positions{angstrom}  cell{atomic_unit}
O  0.         -0.06752644  0.
H  0.77228605  0.52376322  0.
H -0.77228605  0.52376322  0.
