LAMMPS Description
 
         192  atoms
         128  bonds
          64  angles
 
           2  atom types
           1  bond types
           1  angle types
 
         0 23.477089 xlo xhi
         0 23.477089 ylo yhi
         0 23.477089 zlo zhi
 
Masses
 
  1 15.994914
  2  1.007825
 
Bond Coeffs
 
  1    1.780    0.2708585 -0.327738785 0.231328959
 
Angle Coeffs
 
  1    0.0700  107.400000

Atoms
 
 1 1 1 -1.1128    12.6758 4.1459 19.2639  
 2 1 2 0.5564     14.3002 3.3741 19.3261  
 3 1 2 0.5564     12.4130 4.9678 17.6440  
 4 2 1 -1.1128    21.5615 6.9062 10.1646  
 5 2 2 0.5564     21.8851 8.5126 10.8816  
 6 2 2 0.5564     22.0195 6.9798 8.4305   
 7 3 1 -1.1128    13.6442 3.5867 5.0676   
 8 3 2 0.5564     14.7062 3.6523 6.5122   
 9 3 2 0.5564     13.3113 5.2787 4.3829   
 10 4 1 -1.1128   14.2972 8.8068 12.7554  
 11 4 2 0.5564    15.5951 9.9201 13.4958  
 12 4 2 0.5564    15.1963 7.1599 12.6753  
 13 5 1 -1.1128   9.6767 5.7537 23.0726   
 14 5 2 0.5564    10.8814 5.1393 21.7618  
 15 5 2 0.5564    9.4818 4.2924 0.5556    
 16 6 1 -1.1128   1.2785 0.0310 4.4001    
 17 6 2 0.5564    23.0227 0.7444 4.2645   
 18 6 2 0.5564    1.6490 22.5491 2.8910   
 19 7 1 -1.1128   5.6468 14.6020 4.1281   
 20 7 2 0.5564    3.9534 15.2954 4.2901   
 21 7 2 0.5564    5.9391 14.0637 5.8031   
 22 8 1 -1.1128   13.2747 8.0825 2.6870   
 23 8 2 0.5564    12.1094 9.3479 3.1560   
 24 8 2 0.5564    12.2175 7.2768 1.4447   
 25 9 1 -1.1128   6.0351 8.4211 15.4679   
 26 9 2 0.5564    5.1329 7.0054 16.2442   
 27 9 2 0.5564    7.7747 7.8402 15.3151   
 28 10 1 -1.1128  21.6771 9.0337 5.1991   
 29 10 2 0.5564   23.2549 9.8649 5.0318   
 30 10 2 0.5564   21.0090 8.4277 3.5090   
 31 11 1 -1.1128  22.3028 12.4499 16.9133 
 32 11 2 0.5564   0.0333 11.6178 17.9799  
 33 11 2 0.5564   22.9690 11.7437 15.3252 
 34 12 1 -1.1128  19.8128 16.3356 1.4243  
 35 12 2 0.5564   19.0765 17.9832 1.8178  
 36 12 2 0.5564   18.8440 15.1167 2.3932  
 37 13 1 -1.1128  17.7308 2.7655 21.5202  
 38 13 2 0.5564   19.1416 3.2862 20.3547  
 39 13 2 0.5564   17.6953 0.9225 21.2760  
 40 14 1 -1.1128  1.4996 9.1148 20.0697   
 41 14 2 0.5564   3.2351 9.0433 20.4474   
 42 14 2 0.5564   0.8835 8.2365 21.5461   
 43 15 1 -1.1128  19.2137 0.3793 15.5841  
 44 15 2 0.5564   19.1315 2.0469 14.7533  
 45 15 2 0.5564   17.6501 23.3165 16.3499 
 46 16 1 -1.1128  18.1746 6.9209 1.4314   
 47 16 2 0.5564   16.5239 7.6523 1.3670   
 48 16 2 0.5564   18.1277 5.5141 0.2469   
 49 17 1 -1.1128  10.0885 1.2937 2.1320   
 50 17 2 0.5564   11.0864 2.2268 3.3744   
 51 17 2 0.5564   10.2656 23.0700 2.6873  
 52 18 1 -1.1128  20.3102 3.4244 4.4785   
 53 18 2 0.5564   18.9801 2.3936 3.8580   
 54 18 2 0.5564   19.8060 5.1929 4.2619   
 55 19 1 -1.1128  11.7417 12.6160 10.7594 
 56 19 2 0.5564   12.6033 11.1915 11.6539 
 57 19 2 0.5564   10.9402 13.6775 12.0552 
 58 20 1 -1.1128  6.7006 19.0707 21.3614  
 59 20 2 0.5564   7.2542 17.2878 21.0508  
 60 20 2 0.5564   5.2877 19.0858 22.5879  
 61 21 1 -1.1128  22.1937 20.2929 13.3240 
 62 21 2 0.5564   20.7714 21.4400 13.6813 
 63 21 2 0.5564   23.2042 21.1194 12.0328 
 64 22 1 -1.1128  21.3460 16.6843 19.7014 
 65 22 2 0.5564   20.5729 16.3238 21.2701 
 66 22 2 0.5564   21.5941 15.0958 18.8982 
 67 23 1 -1.1128  16.9323 12.2883 15.1854 
 68 23 2 0.5564   15.5806 12.8842 16.1439 
 69 23 2 0.5564   18.3873 12.2243 16.2967 
 70 24 1 -1.1128  22.4077 3.1542 19.8708  
 71 24 2 0.5564   0.0859 3.4729 21.2690   
 72 24 2 0.5564   23.1330 4.1134 18.4862  
 73 25 1 -1.1128  11.2477 14.4417 1.7241  
 74 25 2 0.5564   10.8078 16.1707 1.5405  
 75 25 2 0.5564   10.1301 13.8346 2.9957  
 76 26 1 -1.1128  5.9039 18.8283 10.3331  
 77 26 2 0.5564   4.6060 19.7711 9.4742   
 78 26 2 0.5564   5.0343 18.1868 11.9259  
 79 27 1 -1.1128  4.0914 17.4710 14.9492  
 80 27 2 0.5564   4.2528 15.9555 15.9249  
 81 27 2 0.5564   2.5680 18.3139 15.6633  
 82 28 1 -1.1128  6.0440 9.5436 22.6046   
 83 28 2 0.5564   7.2376 8.3256 22.1079   
 84 28 2 0.5564   5.5754 9.3645 0.8990    
 85 29 1 -1.1128  3.2798 9.7255 3.7966    
 86 29 2 0.5564   4.5793 8.6636 4.5427    
 87 29 2 0.5564   3.6956 11.4816 3.6808   
 88 30 1 -1.1128  17.5519 14.4043 10.4565 
 89 30 2 0.5564   17.2121 12.9390 9.5067  
 90 30 2 0.5564   17.0464 13.9826 12.2467 
 91 31 1 -1.1128  16.4237 13.5143 3.5968  
 92 31 2 0.5564   14.8165 13.4424 2.6749  
 93 31 2 0.5564   16.5139 12.1334 4.7341  
 94 32 1 -1.1128  2.0022 3.1588 11.7910   
 95 32 2 0.5564   0.8311 4.0323 10.7841   
 96 32 2 0.5564   1.5467 3.9295 13.3367   
 97 33 1 -1.1128  11.4316 21.7358 20.6573 
 98 33 2 0.5564   11.1516 23.1344 21.8160 
 99 33 2 0.5564   10.1521 20.5942 21.1186 
 100 34 1 -1.1128 8.4911 21.5194 13.6895  
 101 34 2 0.5564  7.3938 21.7328 15.1584  
 102 34 2 0.5564  7.5400 20.4394 12.5161  
 103 35 1 -1.1128 0.6383 6.3501 15.8515   
 104 35 2 0.5564  1.0616 7.0020 17.6027   
 105 35 2 0.5564  0.4102 7.9257 14.8689   
 106 36 1 -1.1128 0.6918 15.5915 4.0733   
 107 36 2 0.5564  22.7196 15.9449 3.1269  
 108 36 2 0.5564  0.3226 16.3380 5.6690   
 109 37 1 -1.1128 5.6206 22.8860 17.9814  
 110 37 2 0.5564  3.9368 22.4755 17.7935  
 111 37 2 0.5564  6.2119 21.6420 19.2811  
 112 38 1 -1.1128 16.6860 18.6730 16.0908 
 113 38 2 0.5564  16.4710 19.0601 14.2477 
 114 38 2 0.5564  18.4591 18.5582 16.2409 
 115 39 1 -1.1128 2.6612 19.6107 1.0421   
 116 39 2 0.5564  1.6336 18.2007 1.6574   
 117 39 2 0.5564  1.9487 20.4587 23.0268  
 118 40 1 -1.1128 9.5586 2.5837 11.4447   
 119 40 2 0.5564  8.7978 0.8602 12.0396   
 120 40 2 0.5564  8.6218 2.9686 9.9982    
 121 41 1 -1.1128 7.0454 14.1121 8.9795   
 122 41 2 0.5564  7.0190 15.9317 9.4206   
 123 41 2 0.5564  8.7893 13.7616 9.0567   
 124 42 1 -1.1128 14.9940 18.0666 5.2721  
 125 42 2 0.5564  15.6903 16.4117 4.8278  
 126 42 2 0.5564  14.9812 18.0313 7.1439  
 127 43 1 -1.1128 12.3157 14.6853 18.4359 
 128 43 2 0.5564  13.7266 15.4459 19.1413 
 129 43 2 0.5564  11.0596 14.8292 19.6616 
 130 44 1 -1.1128 10.1679 19.6183 3.5288  
 131 44 2 0.5564  8.7171 18.9397 4.3791   
 132 44 2 0.5564  11.6530 19.1830 4.4403  
 133 45 1 -1.1128 10.7329 6.0448 15.0647  
 134 45 2 0.5564  10.3696 4.8815 13.5639  
 135 45 2 0.5564  12.2324 6.9976 14.5152  
 136 46 1 -1.1128 11.2757 17.4631 13.8736 
 137 46 2 0.5564  10.7688 19.1263 14.2848 
 138 46 2 0.5564  11.8724 16.7462 15.4927 
 139 47 1 -1.1128 7.0085 7.3590 6.1722    
 140 47 2 0.5564  6.1574 8.2317 7.5879    
 141 47 2 0.5564  6.2686 5.7323 6.1096    
 142 48 1 -1.1128 2.1936 4.6863 0.0594    
 143 48 2 0.5564  3.6242 4.4626 22.3394   
 144 48 2 0.5564  2.9439 4.3427 1.6194    
 145 49 1 -1.1128 16.8953 21.0546 20.7781 
 146 49 2 0.5564  17.3331 19.6652 19.6229 
 147 49 2 0.5564  15.0908 20.8423 20.8878 
 148 50 1 -1.1128 4.9334 13.0660 17.2382  
 149 50 2 0.5564  5.2829 11.4632 16.5169  
 150 50 2 0.5564  6.3017 13.6394 18.2869  
 151 51 1 -1.1128 1.8788 22.0989 9.5052   
 152 51 2 0.5564  1.3367 22.4493 7.7948   
 153 51 2 0.5564  2.0463 0.2697 10.3822   
 154 52 1 -1.1128 17.2841 10.3092 7.5194  
 155 52 2 0.5564  16.7480 8.6927 8.1246   
 156 52 2 0.5564  18.9858 10.0358 6.7149  
 157 53 1 -1.1128 18.4635 21.5204 2.5385  
 158 53 2 0.5564  17.7621 21.3790 0.8693  
 159 53 2 0.5564  17.3658 20.8436 3.8776  
 160 54 1 -1.1128 5.0920 9.6077 10.3776   
 161 54 2 0.5564  5.9225 11.2607 10.1196  
 162 54 2 0.5564  5.8800 8.9465 11.9406   
 163 55 1 -1.1128 0.3997 11.0074 12.0218  
 164 55 2 0.5564  23.2881 12.5176 11.2748 
 165 55 2 0.5564  2.1488 11.0416 11.8225  
 166 56 1 -1.1128 10.3654 11.1009 5.6238  
 167 56 2 0.5564  9.3208 9.5920 5.6672    
 168 56 2 0.5564  11.2503 11.2095 7.1838  
 169 57 1 -1.1128 17.4121 4.8723 12.3454  
 170 57 2 0.5564  18.9233 5.0983 11.4347  
 171 57 2 0.5564  16.4461 3.4567 11.6904  
 172 58 1 -1.1128 22.4408 15.8568 9.6472  
 173 58 2 0.5564  20.6291 15.5095 9.7034  
 174 58 2 0.5564  22.7462 16.9682 10.9244 
 175 59 1 -1.1128 5.4634 2.9535 4.4262    
 176 59 2 0.5564  4.0519 1.8819 4.5080    
 177 59 2 0.5564  6.8317 1.9014 3.4537    
 178 60 1 -1.1128 14.6684 0.7871 10.3666  
 179 60 2 0.5564  15.2784 22.5810 10.4940 
 180 60 2 0.5564  12.9547 0.9175 10.8132  
 181 61 1 -1.1128 8.2087 14.2449 21.3626  
 182 61 2 0.5564  9.1562 14.1924 22.9178  
 183 61 2 0.5564  7.0723 12.8351 21.6727  
 184 62 1 -1.1128 6.1643 4.1748 18.9922   
 185 62 2 0.5564  8.0003 4.4223 18.8401   
 186 62 2 0.5564  5.9187 2.3748 18.5978   
 187 63 1 -1.1128 15.1272 18.9133 10.6666 
 188 63 2 0.5564  16.1519 17.3319 10.5375 
 189 63 2 0.5564  13.6262 18.4416 11.4931 
 190 64 1 -1.1128 0.5490 21.0025 19.5855  
 191 64 2 0.5564  22.4776 21.9044 19.5258 
 192 64 2 0.5564  23.4057 19.3704 19.9070 

Bonds

 1 1 1 2
 2 1 1 3
 3 1 4 5
 4 1 4 6
 5 1 7 8
 6 1 7 9
 7 1 10 11
 8 1 10 12
 9 1 13 14
 10 1 13 15
 11 1 16 17
 12 1 16 18
 13 1 19 20
 14 1 19 21
 15 1 22 23
 16 1 22 24
 17 1 25 26
 18 1 25 27
 19 1 28 29
 20 1 28 30
 21 1 31 32
 22 1 31 33
 23 1 34 35
 24 1 34 36
 25 1 37 38
 26 1 37 39
 27 1 40 41
 28 1 40 42
 29 1 43 44
 30 1 43 45
 31 1 46 47
 32 1 46 48
 33 1 49 50
 34 1 49 51
 35 1 52 53
 36 1 52 54
 37 1 55 56
 38 1 55 57
 39 1 58 59
 40 1 58 60
 41 1 61 62
 42 1 61 63
 43 1 64 65
 44 1 64 66
 45 1 67 68
 46 1 67 69
 47 1 70 71
 48 1 70 72
 49 1 73 74
 50 1 73 75
 51 1 76 77
 52 1 76 78
 53 1 79 80
 54 1 79 81
 55 1 82 83
 56 1 82 84
 57 1 85 86
 58 1 85 87
 59 1 88 89
 60 1 88 90
 61 1 91 92
 62 1 91 93
 63 1 94 95
 64 1 94 96
 65 1 97 98
 66 1 97 99
 67 1 100 101
 68 1 100 102
 69 1 103 104
 70 1 103 105
 71 1 106 107
 72 1 106 108
 73 1 109 110
 74 1 109 111
 75 1 112 113
 76 1 112 114
 77 1 115 116
 78 1 115 117
 79 1 118 119
 80 1 118 120
 81 1 121 122
 82 1 121 123
 83 1 124 125
 84 1 124 126
 85 1 127 128
 86 1 127 129
 87 1 130 131
 88 1 130 132
 89 1 133 134
 90 1 133 135
 91 1 136 137
 92 1 136 138
 93 1 139 140
 94 1 139 141
 95 1 142 143
 96 1 142 144
 97 1 145 146
 98 1 145 147
 99 1 148 149
 100 1 148 150
 101 1 151 152
 102 1 151 153
 103 1 154 155
 104 1 154 156
 105 1 157 158
 106 1 157 159
 107 1 160 161
 108 1 160 162
 109 1 163 164
 110 1 163 165
 111 1 166 167
 112 1 166 168
 113 1 169 170
 114 1 169 171
 115 1 172 173
 116 1 172 174
 117 1 175 176
 118 1 175 177
 119 1 178 179
 120 1 178 180
 121 1 181 182
 122 1 181 183
 123 1 184 185
 124 1 184 186
 125 1 187 188
 126 1 187 189
 127 1 190 191
 128 1 190 192

Angles

 1 1 2 1 3
 2 1 5 4 6
 3 1 8 7 9
 4 1 11 10 12
 5 1 14 13 15
 6 1 17 16 18
 7 1 20 19 21
 8 1 23 22 24
 9 1 26 25 27
 10 1 29 28 30
 11 1 32 31 33
 12 1 35 34 36
 13 1 38 37 39
 14 1 41 40 42
 15 1 44 43 45
 16 1 47 46 48
 17 1 50 49 51
 18 1 53 52 54
 19 1 56 55 57
 20 1 59 58 60
 21 1 62 61 63
 22 1 65 64 66
 23 1 68 67 69
 24 1 71 70 72
 25 1 74 73 75
 26 1 77 76 78
 27 1 80 79 81
 28 1 83 82 84
 29 1 86 85 87
 30 1 89 88 90
 31 1 92 91 93
 32 1 95 94 96
 33 1 98 97 99
 34 1 101 100 102
 35 1 104 103 105
 36 1 107 106 108
 37 1 110 109 111
 38 1 113 112 114
 39 1 116 115 117
 40 1 119 118 120
 41 1 122 121 123
 42 1 125 124 126
 43 1 128 127 129
 44 1 131 130 132
 45 1 134 133 135
 46 1 137 136 138
 47 1 140 139 141
 48 1 143 142 144
 49 1 146 145 147
 50 1 149 148 150
 51 1 152 151 153
 52 1 155 154 156
 53 1 158 157 159
 54 1 161 160 162
 55 1 164 163 165
 56 1 167 166 168
 57 1 170 169 171
 58 1 173 172 174
 59 1 176 175 177
 60 1 179 178 180
 61 1 182 181 183
 62 1 185 184 186
 63 1 188 187 189
 64 1 191 190 192
