8
#  CELL(abcABC):  4.2879  4.2879  4.2879  90.0  90.0  90.0  Traj:  positions{atomic_unit}  Step:  0  Bead:  0  cell{atomic_unit}
H   1.0844189333099281        1.0997891342724069       0.09741645926582456
H  0.75544822047597715      -0.90642400336781914       -2.0458639602589437     
H  -1.1976602615819170        1.1396815781971990       -1.9735788319702261     
H  -1.1984578304368108       -1.0242788849081876       0.21991064568270161     
H  0.90319073386049098        1.2668935050186461        1.1798728839733514     
H  0.81224726935132552       -1.0887362294162308      -0.90224074280975874     
H  -1.2099856391545645       -1.9863861947310959        2.0788980296595865     
H  -1.1008014258244603       0.34786109493507666       0.19398551645747622
