LAMMPS Description
 
          12  atoms
           0  bonds
           0  angles
           0  dihedrals
 
           2  atom types
           0  bond types
           0  angle types
           0  dihedral types
 
         0 17.1404 xlo xhi
         0 19.792  ylo yhi
         0 30.00000 zlo zhi
 
Masses
 
  1 12.0110
  2  1.0080
 
Atoms
 
1   2        8.43090       -7.64856        3.08149
2   1        7.88729       -8.59708        3.13791
3   1        6.49669       -8.60046        3.17688
4   2        5.94591       -7.65476        3.15118
5   1        5.80584       -9.80579        3.24864
6   2        4.71157       -9.80845        3.27940
7   1        6.50544      -11.00776        3.28138
8   2        5.96179      -11.95622        3.33785
9   1        7.89602      -11.00436        3.24246
10   2        8.44654      -11.95016        3.26834
11   1        8.58690       -9.79905        3.17069
12   2        9.68114       -9.79632        3.14005
