5
# CELL(abcABC):   35.23300    35.23300    35.23300    90.00000    90.00000    90.00000  Step:           0  Bead:       0 f_centroid{atomic_unit}  cell{atomic_unit}
       O -2.50021e-02  3.89505e-03 -3.37091e-02
       H  1.41479e-02 -2.18047e-03  1.08380e-02
       H  1.08542e-02 -1.71458e-03  2.28711e-02
       L  4.54115e-03 -5.51469e-04 -2.25858e-04
       L -2.64695e-04 -5.91365e-03  5.90805e-05
5
# CELL(abcABC):   35.23300    35.23300    35.23300    90.00000    90.00000    90.00000  Step:           1  Bead:       0 f_centroid{atomic_unit}  cell{atomic_unit}
       O -2.39398e-02  3.59554e-03 -3.24990e-02
       H  1.31926e-02 -2.03331e-03  1.07601e-02
       H  1.07472e-02 -1.56223e-03  2.17388e-02
       L  4.28680e-03 -5.20656e-04 -2.13234e-04
       L -2.49893e-04 -5.58303e-03  5.57779e-05
5
# CELL(abcABC):   35.23300    35.23300    35.23300    90.00000    90.00000    90.00000  Step:           2  Bead:       0 f_centroid{atomic_unit}  cell{atomic_unit}
       O -2.08693e-02  2.74200e-03 -2.89221e-02
       H  1.04280e-02 -1.61202e-03  1.05249e-02
       H  1.04413e-02 -1.12998e-03  1.83972e-02
       L  3.55221e-03 -4.31661e-04 -1.76773e-04
       L -2.07142e-04 -4.62817e-03  4.62395e-05
5
# CELL(abcABC):   35.23300    35.23300    35.23300    90.00000    90.00000    90.00000  Step:           3  Bead:       0 f_centroid{atomic_unit}  cell{atomic_unit}
       O -1.61379e-02  1.45989e-03 -2.31616e-02
       H  6.16303e-03 -9.72724e-04  1.01268e-02
       H  9.97483e-03 -4.87167e-04  1.30348e-02
       L  2.41965e-03 -2.94427e-04 -1.20552e-04
       L -1.41223e-04 -3.15583e-03  3.15316e-05
5
# CELL(abcABC):   35.23300    35.23300    35.23300    90.00000    90.00000    90.00000  Step:           4  Bead:       0 f_centroid{atomic_unit}  cell{atomic_unit}
       O -1.03112e-02 -7.12914e-05 -1.55905e-02
       H  9.18929e-04 -1.95622e-04  9.55346e-03
       H  9.39227e-03  2.66914e-04  6.03706e-03
       L  1.01591e-03 -1.24292e-04 -5.08547e-05
       L -5.95095e-05 -1.33065e-03  1.32985e-05
5
# CELL(abcABC):   35.23300    35.23300    35.23300    90.00000    90.00000    90.00000  Step:           5  Bead:       0 f_centroid{atomic_unit}  cell{atomic_unit}
       O -4.12992e-03 -1.65501e-03 -6.84179e-03
       H -4.58725e-03  6.30739e-04  8.78302e-03
       H  8.71717e-03  1.02427e-03 -1.94123e-03
       L -5.01832e-04  5.97325e-05  2.45275e-05
       L  2.88598e-05  6.43276e-04 -6.42137e-06
5
# CELL(abcABC):   35.23300    35.23300    35.23300    90.00000    90.00000    90.00000  Step:           6  Bead:       0 f_centroid{atomic_unit}  cell{atomic_unit}
       O  1.58632e-03 -3.11404e-03  2.16136e-03
       H -9.51148e-03  1.42342e-03  7.78193e-03
       H  7.92516e-03  1.69062e-03 -9.94329e-03
       L -1.96366e-03  2.37082e-04  9.71679e-05
       L  1.14001e-04  2.54522e-03 -2.54233e-05
5
# CELL(abcABC):   35.23300    35.23300    35.23300    90.00000    90.00000    90.00000  Step:           7  Bead:       0 f_centroid{atomic_unit}  cell{atomic_unit}
       O  6.08731e-03 -4.31288e-03  1.02782e-02
       H -1.30184e-02  2.11215e-03  6.50899e-03
       H  6.93108e-03  2.20072e-03 -1.67872e-02
       L -3.20590e-03  3.87938e-04  1.58946e-04
       L  1.86392e-04  4.16251e-03 -4.15830e-05
5
# CELL(abcABC):   35.23300    35.23300    35.23300    90.00000    90.00000    90.00000  Step:           8  Bead:       0 f_centroid{atomic_unit}  cell{atomic_unit}
       O  8.85724e-03 -5.15767e-03  1.63635e-02
       H -1.44645e-02  2.63811e-03  4.92808e-03
       H  5.60722e-03  2.51957e-03 -2.12916e-02
       L -4.08952e-03  4.95443e-04  2.02957e-04
       L  2.37937e-04  5.31431e-03 -5.30937e-05
5
# CELL(abcABC):   35.23300    35.23300    35.23300    90.00000    90.00000    90.00000  Step:           9  Bead:       0 f_centroid{atomic_unit}  cell{atomic_unit}
       O  9.72893e-03 -5.57827e-03  1.95788e-02
       H -1.35669e-02  2.94866e-03  3.02852e-03
       H  3.83794e-03  2.62961e-03 -2.26074e-02
       L -4.51560e-03  5.47582e-04  2.24279e-04
       L  2.62869e-04  5.87183e-03 -5.86687e-05
5
# CELL(abcABC):   35.23300    35.23300    35.23300    90.00000    90.00000    90.00000  Step:          10  Bead:       0 f_centroid{atomic_unit}  cell{atomic_unit}
       O  8.89314e-03 -5.51124e-03  1.96629e-02
       H -1.04827e-02  2.99614e-03  8.45039e-04
       H  1.58956e-03  2.51510e-03 -2.05080e-02
       L -4.43649e-03  5.38530e-04  2.20530e-04
       L  2.58401e-04  5.77273e-03 -5.76846e-05
