5
# CELL(abcABC):   35.23300    35.23300    35.23300    90.00000    90.00000    90.00000  Step:           0  Bead:       0 x_centroid{angstrom}  cell{atomic_unit}
       O  2.38972e+00  2.62791e-01  5.65120e+00
       H  1.41821e+00  1.87797e-01  5.65303e+00
       H  2.50853e+00  2.13428e-01  4.67340e+00
       L -8.65101e+00  1.11541e+00  4.56823e-01
       L  5.35376e-01  1.20389e+01 -1.19497e-01
5
# CELL(abcABC):   35.23300    35.23300    35.23300    90.00000    90.00000    90.00000  Step:           1  Bead:       0 x_centroid{angstrom}  cell{atomic_unit}
       O  2.38961e+00  2.62828e-01  5.65107e+00
       H  1.41907e+00  1.87685e-01  5.65370e+00
       H  2.50918e+00  2.13345e-01  4.67481e+00
       L -8.13764e+00  1.05309e+00  4.31290e-01
       L  5.05437e-01  1.13704e+01 -1.12817e-01
5
# CELL(abcABC):   35.23300    35.23300    35.23300    90.00000    90.00000    90.00000  Step:           2  Bead:       0 x_centroid{angstrom}  cell{atomic_unit}
       O  2.38928e+00  2.62936e-01  5.65069e+00
       H  1.42152e+00  1.87365e-01  5.65569e+00
       H  2.51113e+00  2.13111e-01  4.67889e+00
       L -6.65502e+00  8.73083e-01  3.57544e-01
       L  4.18968e-01  9.43953e+00 -9.35247e-02
5
# CELL(abcABC):   35.23300    35.23300    35.23300    90.00000    90.00000    90.00000  Step:           3  Bead:       0 x_centroid{angstrom}  cell{atomic_unit}
       O  2.38877e+00  2.63099e-01  5.65008e+00
       H  1.42523e+00  1.86881e-01  5.65898e+00
       H  2.51434e+00  2.12774e-01  4.68524e+00
       L -4.36926e+00  5.95513e-01  2.43830e-01
       L  2.85640e-01  6.46226e+00 -6.37762e-02
5
# CELL(abcABC):   35.23300    35.23300    35.23300    90.00000    90.00000    90.00000  Step:           4  Bead:       0 x_centroid{angstrom}  cell{atomic_unit}
       O  2.38812e+00  2.63297e-01  5.64930e+00
       H  1.42968e+00  1.86302e-01  5.66351e+00
       H  2.51876e+00  2.12400e-01  4.69319e+00
       L -1.53641e+00  2.51395e-01  1.02859e-01
       L  1.20365e-01  2.77147e+00 -2.68977e-02
5
# CELL(abcABC):   35.23300    35.23300    35.23300    90.00000    90.00000    90.00000  Step:           5  Bead:       0 x_centroid{angstrom}  cell{atomic_unit}
       O  2.38739e+00  2.63505e-01  5.64840e+00
       H  1.43424e+00  1.85708e-01  5.66923e+00
       H  2.52433e+00  2.12069e-01  4.70189e+00
       L  1.52613e+00 -1.20816e-01 -4.96097e-02
       L -5.83723e-02 -1.22017e+00  1.29880e-02
5
# CELL(abcABC):   35.23300    35.23300    35.23300    90.00000    90.00000    90.00000  Step:           6  Bead:       0 x_centroid{angstrom}  cell{atomic_unit}
       O  2.38662e+00  2.63695e-01  5.64744e+00
       H  1.43824e+00  1.85187e-01  5.67602e+00
       H  2.53098e+00  2.11859e-01  4.71035e+00
       L  4.47521e+00 -4.79526e-01 -1.96533e-01
       L -2.30581e-01 -5.06637e+00  5.14216e-02
5
# CELL(abcABC):   35.23300    35.23300    35.23300    90.00000    90.00000    90.00000  Step:           7  Bead:       0 x_centroid{angstrom}  cell{atomic_unit}
       O  2.38588e+00  2.63842e-01  5.64650e+00
       H  1.44109e+00  1.84822e-01  5.68377e+00
       H  2.53861e+00  2.11838e-01  4.71758e+00
       L  6.98031e+00 -7.84650e-01 -3.21487e-01
       L -3.77000e-01 -8.33710e+00  8.41063e-02
5
# CELL(abcABC):   35.23300    35.23300    35.23300    90.00000    90.00000    90.00000  Step:           8  Bead:       0 x_centroid{angstrom}  cell{atomic_unit}
       O  2.38521e+00  2.63925e-01  5.64564e+00
       H  1.44235e+00  1.84686e-01  5.69232e+00
       H  2.54712e+00  2.12057e-01  4.72275e+00
       L  8.76056e+00 -1.00209e+00 -4.10503e-01
       L -4.81254e-01 -1.06667e+01  1.07388e-01
5
# CELL(abcABC):   35.23300    35.23300    35.23300    90.00000    90.00000    90.00000  Step:           9  Bead:       0 x_centroid{angstrom}  cell{atomic_unit}
       O  2.38463e+00  2.63927e-01  5.64490e+00
       H  1.44185e+00  1.84834e-01  5.70147e+00
       H  2.55635e+00  2.12545e-01  4.72530e+00
       L  9.61617e+00 -1.10755e+00 -4.53630e-01
       L -5.31683e-01 -1.17947e+01  1.18664e-01
5
# CELL(abcABC):   35.23300    35.23300    35.23300    90.00000    90.00000    90.00000  Step:          10  Bead:       0 x_centroid{angstrom}  cell{atomic_unit}
       O  2.38416e+00  2.63841e-01  5.64432e+00
       H  1.43972e+00  1.85302e-01  5.71100e+00
       H  2.56608e+00  2.13313e-01  4.72506e+00
       L  9.45081e+00 -1.08924e+00 -4.46048e-01
       L -5.22647e-01 -1.15952e+01  1.16674e-01
