192
# CELL(abcABC):   23.64520    23.64520    23.64520    90.00000    90.00000    90.00000  Step:       60000  Bead:       0 x_centroid{atomic_unit}  cell{atomic_unit}
       O -5.07785e+01  3.85429e+01 -1.75896e+01
       H -5.21696e+01  3.86218e+01 -1.87973e+01
       H -4.94627e+01  3.76021e+01 -1.82407e+01
       O  4.63115e+01  1.09784e+02 -5.65499e+01
       H  4.78714e+01  1.08722e+02 -5.66637e+01
       H  4.70258e+01  1.11444e+02 -5.64767e+01
       O  9.31081e+00  2.92140e+01 -6.89337e+01
       H  9.34480e+00  2.97998e+01 -6.71882e+01
       H  1.10741e+01  2.89168e+01 -6.93565e+01
       O  6.98487e+01 -4.26719e+01 -8.79640e+01
       H  6.96025e+01 -4.38860e+01 -8.92865e+01
       H  7.11073e+01 -4.15533e+01 -8.85940e+01
       O  5.90699e+01  1.34684e+02  7.59769e+01
       H  5.82515e+01  1.36279e+02  7.61525e+01
       H  5.77248e+01  1.33471e+02  7.63559e+01
       O -2.94269e+01  1.10483e+01  8.95726e+00
       H -2.85651e+01  1.23351e+01  7.95487e+00
       H -2.96151e+01  9.54380e+00  7.93079e+00
       O  1.71038e+01 -1.69297e+01 -1.76093e+01
       H  1.72630e+01 -1.60636e+01 -1.92321e+01
       H  1.87298e+01 -1.75406e+01 -1.72653e+01
       O  1.16584e+01  1.49119e+01  6.75885e+01
       H  1.16829e+01  1.31147e+01  6.72460e+01
       H  1.06549e+01  1.50787e+01  6.91362e+01
       O  6.59460e+01 -3.77092e+01  9.66794e+01
       H  6.64301e+01 -3.78237e+01  9.49944e+01
       H  6.49109e+01 -3.61929e+01  9.68505e+01
       O -5.19573e+01 -1.05375e+02 -5.32106e+01
       H -5.10198e+01 -1.04145e+02 -5.41062e+01
       H -5.28206e+01 -1.06343e+02 -5.45202e+01
       O -1.10875e+02  4.91233e+01  1.88460e+01
       H -1.10402e+02  4.97878e+01  1.71830e+01
       H -1.10932e+02  5.07967e+01  1.96600e+01
       O -1.04137e+02  7.47044e+01  4.70740e+01
       H -1.03425e+02  7.55707e+01  4.56120e+01
       H -1.02776e+02  7.38554e+01  4.79910e+01
       O  5.36853e+00 -5.53003e+01 -3.96020e+01
       H  3.76058e+00 -5.51196e+01 -3.89106e+01
       H  5.37005e+00 -5.42855e+01 -4.10908e+01
       O  8.74123e+01 -5.57414e+01  2.15647e+01
       H  8.84613e+01 -5.63970e+01  2.02462e+01
       H  8.58978e+01 -5.54680e+01  2.05793e+01
       O -6.57806e+00 -1.73840e+00  3.13870e+01
       H -5.46316e+00 -6.31528e-01  3.22508e+01
       H -6.65681e+00 -1.12722e+00  2.96717e+01
       O -8.10530e+01 -4.00875e+01 -3.42524e+01
       H -8.21705e+01 -4.09656e+01 -3.30929e+01
       H -8.17931e+01 -3.84138e+01 -3.41558e+01
       O  8.27920e+00 -4.07461e+01 -6.37304e+01
       H  9.84523e+00 -4.17290e+01 -6.33455e+01
       H  7.03010e+00 -4.13269e+01 -6.25531e+01
       O -2.69601e+01  1.03377e+02 -7.37912e+01
       H -2.54318e+01  1.02566e+02 -7.42298e+01
       H -2.71778e+01  1.04726e+02 -7.51363e+01
       O  8.89194e+01  3.29626e+01  1.38185e+01
       H  8.72730e+01  3.22482e+01  1.34814e+01
       H  8.93958e+01  3.37530e+01  1.22439e+01
       O  1.21415e+02  5.46173e+01 -1.99297e+01
       H  1.22173e+02  5.55972e+01 -2.12161e+01
       H  1.22039e+02  5.29683e+01 -2.05087e+01
       O -1.55466e+01  5.90212e+01 -1.82724e+01
       H -1.55197e+01  5.75732e+01 -1.73077e+01
       H -1.66578e+01  6.00887e+01 -1.73474e+01
       O  8.02064e+00  1.39113e+01  7.14210e+01
       H  8.08961e+00  1.27080e+01  7.27994e+01
       H  6.43111e+00  1.36501e+01  7.06369e+01
       O  2.88508e+00  8.40499e+01 -4.77092e+01
       H  2.97282e+00  8.31925e+01 -4.93061e+01
       H  1.73401e+00  8.30602e+01 -4.67939e+01
       O  1.15428e+02 -2.25135e+01  5.77067e+01
       H  1.15367e+02 -2.16731e+01  5.92803e+01
       H  1.15991e+02 -2.11363e+01  5.66096e+01
       O -6.14344e+01  5.14733e+01  3.84345e+01
       H -6.09965e+01  4.97361e+01  3.80241e+01
       H -6.27068e+01  5.19791e+01  3.72373e+01
       O  4.03662e+01 -2.36149e+01  2.62579e+00
       H  4.21265e+01 -2.32251e+01  2.55397e+00
       H  4.00093e+01 -2.45675e+01  1.16576e+00
       O -3.70507e+01 -2.43541e+01  1.30854e+01
       H -3.62653e+01 -2.41831e+01  1.14202e+01
       H -3.60943e+01 -2.56194e+01  1.41282e+01
       O  5.96112e+01  2.31669e+01  3.17509e+01
       H  6.12935e+01  2.25130e+01  3.15617e+01
       H  5.99900e+01  2.50034e+01  3.21184e+01
       O  1.12217e+02 -2.94917e+01 -1.24713e+01
       H  1.11882e+02 -2.82464e+01 -1.37390e+01
       H  1.10932e+02 -3.06509e+01 -1.28635e+01
       O  6.95396e+00 -8.06720e+01  1.27099e+01
       H  6.95673e+00 -7.95367e+01  1.40455e+01
       H  6.53203e+00 -7.98931e+01  1.11548e+01
       O -9.58403e+01  4.29117e+01  7.44720e+01
       H -9.67914e+01  4.20353e+01  7.57540e+01
       H -9.40849e+01  4.28280e+01  7.49788e+01
       O -1.41783e+00 -5.44740e+01  2.30446e+01
       H -1.24198e+00 -5.35127e+01  2.45940e+01
       H -1.15381e-01 -5.57994e+01  2.29590e+01
       O -5.53422e+01  5.37321e+01  1.93936e+01
       H -5.36867e+01  5.43777e+01  1.98333e+01
       H -5.51096e+01  5.27809e+01  1.79583e+01
       O  2.65089e+01  3.60027e+01 -9.13110e+00
       H  2.70724e+01  3.53775e+01 -7.51117e+00
       H  2.80377e+01  3.66037e+01 -1.00964e+01
       O -8.30129e+01 -3.73445e+01 -2.84271e+01
       H -8.30334e+01 -3.67668e+01 -3.00835e+01
       H -8.14636e+01 -3.83053e+01 -2.82924e+01
       O  6.32658e+01 -3.28781e+01 -2.07020e+01
       H  6.32469e+01 -3.25546e+01 -2.25025e+01
       H  6.15853e+01 -3.24108e+01 -1.99988e+01
       O  2.69372e+01  3.35294e+01  4.27973e+01
       H  2.86654e+01  3.27640e+01  4.33155e+01
       H  2.59670e+01  3.20408e+01  4.27386e+01
       O -2.63959e+01  7.57182e+01  8.51054e+01
       H -2.78069e+01  7.47563e+01  8.56807e+01
       H -2.70243e+01  7.73601e+01  8.50152e+01
       O -3.33779e+01  1.09045e+02  1.04208e+02
       H -3.41695e+01  1.09418e+02  1.02661e+02
       H -3.21521e+01  1.07699e+02  1.03821e+02
       O  4.06731e+01  2.54333e+01  3.99966e+01
       H  4.12410e+01  2.37206e+01  3.95745e+01
       H  3.91470e+01  2.52538e+01  4.09797e+01
       O  4.80609e+01  1.55250e+00 -2.56764e+01
       H  4.95575e+01  1.65341e+00 -2.46086e+01
       H  4.80379e+01 -1.42891e-01 -2.64772e+01
       O  1.73072e+02 -4.00201e+01  2.08123e+01
       H  1.73569e+02 -4.03333e+01  2.25668e+01
       H  1.74578e+02 -3.92129e+01  2.00782e+01
       O -4.90375e+01 -2.30191e+01 -4.46130e+01
       H -4.87459e+01 -2.47561e+01 -4.41682e+01
       H -4.83073e+01 -2.29335e+01 -4.63428e+01
       O  4.56559e+00 -4.81384e+01 -1.23620e+01
       H  3.04604e+00 -4.90740e+01 -1.17848e+01
       H  5.91303e+00 -4.82473e+01 -1.12187e+01
       O  2.38714e+01  5.69471e+00  6.59324e+01
       H  2.40763e+01  4.57386e+00  6.71833e+01
       H  2.27068e+01  4.96369e+00  6.47889e+01
       O  1.77471e+01 -5.06010e+01 -1.97421e+00
       H  1.82968e+01 -5.07110e+01 -3.67862e+00
       H  1.74786e+01 -5.22321e+01 -1.37805e+00
       O -3.42719e+01 -7.47109e+01 -7.81518e+01
       H -3.45025e+01 -7.34899e+01 -7.68125e+01
       H -3.53840e+01 -7.60373e+01 -7.77000e+01
       O -5.55347e+00  1.99125e+01  3.96810e+01
       H -7.33824e+00  1.96139e+01  3.98653e+01
       H -5.42402e+00  1.91415e+01  3.79445e+01
       O -7.07228e+01  4.46130e+01  5.96936e+01
       H -7.09153e+01  4.33357e+01  5.84946e+01
       H -7.17596e+01  4.59352e+01  5.89921e+01
       O -6.21577e+01  6.78858e+01  5.39655e+00
       H -6.19338e+01  6.80544e+01  3.59036e+00
       H -6.08524e+01  6.89674e+01  6.11768e+00
       O -3.91478e+01  1.97972e+01  4.65426e-01
       H -3.85261e+01  1.81183e+01  4.89428e-01
       H -3.95398e+01  2.01138e+01 -1.26570e+00
       O  1.30788e+01  4.60375e+00  3.21082e+01
       H  1.35014e+01  5.59818e+00  3.35767e+01
       H  1.43920e+01  5.12825e+00  3.09664e+01
       O  2.48877e+01  7.19623e+00  1.77316e+02
       H  2.35248e+01  6.39621e+00  1.78039e+02
       H  2.53719e+01  8.54396e+00  1.78341e+02
       O  3.97834e+00 -5.87785e+00  5.01164e+01
       H  4.10480e+00 -7.33612e+00  4.91062e+01
       H  5.29981e+00 -4.71957e+00  4.96002e+01
       O -5.93281e+01  1.18717e+01 -8.09398e+01
       H -5.83788e+01  1.28704e+01 -8.22198e+01
       H -6.10634e+01  1.23486e+01 -8.10997e+01
       O  4.72291e+00  5.00009e+01  9.62373e+01
       H  4.40045e+00  4.87418e+01  9.74397e+01
       H  6.46926e+00  5.04227e+01  9.66510e+01
       O  5.28475e+00 -4.30606e+01  3.42572e+01
       H  3.54337e+00 -4.25616e+01  3.44106e+01
       H  5.07963e+00 -4.48522e+01  3.45242e+01
       O -1.82152e+01  2.06922e+01  9.02740e+01
       H -1.78270e+01  2.24493e+01  9.01781e+01
       H -2.00396e+01  2.06137e+01  9.05871e+01
       O  9.42155e+01  3.50980e+01 -2.00489e+01
       H  9.53451e+01  3.36685e+01 -1.96528e+01
       H  9.26673e+01  3.44843e+01 -2.07274e+01
       O  5.12651e+01 -2.45932e+01  7.64620e+01
       H  5.10053e+01 -2.42742e+01  7.82203e+01
       H  5.29182e+01 -2.51661e+01  7.64734e+01
       O  2.92446e-01  1.99541e+01  6.71819e+01
       H -5.23269e-01  1.86244e+01  6.81769e+01
       H -8.54238e-01  2.01787e+01  6.58591e+01
       O  1.89115e+02  1.66411e+01 -1.40332e+01
       H  1.87749e+02  1.64456e+01 -1.52679e+01
       H  1.88545e+02  1.60293e+01 -1.24089e+01
       O -6.29791e+01  8.76938e+01 -5.38956e+01
       H -6.17925e+01  8.71398e+01 -5.26352e+01
       H -6.38094e+01  8.91347e+01 -5.31041e+01
       O -5.82364e+01 -2.32025e+01 -4.19976e+00
       H -5.98480e+01 -2.24911e+01 -3.76980e+00
       H -5.72452e+01 -2.28790e+01 -2.67518e+00
