192
# CELL(abcABC):   23.84275    23.84275    23.84275    90.00000    90.00000    90.00000  Step:       60000  Bead:       0 x_centroid{atomic_unit}  cell{atomic_unit}
       O -2.86164e+01  3.20629e+01 -3.53776e+01
       H -2.97789e+01  3.07495e+01 -3.48833e+01
       H -2.89361e+01  3.36587e+01 -3.44474e+01
       O  1.15781e+01  1.07799e+02 -6.24087e+01
       H  1.15817e+01  1.09400e+02 -6.31169e+01
       H  1.10284e+01  1.06663e+02 -6.37784e+01
       O  1.79666e+01  5.07985e+01 -7.16332e+01
       H  1.62322e+01  5.08040e+01 -7.21711e+01
       H  1.84914e+01  4.91306e+01 -7.15222e+01
       O  7.80692e+01 -2.72974e+01 -1.14599e+02
       H  7.64321e+01 -2.81003e+01 -1.14298e+02
       H  7.79848e+01 -2.73242e+01 -1.16474e+02
       O  6.88683e+01  1.40006e+02  8.32764e+01
       H  6.77656e+01  1.38593e+02  8.30954e+01
       H  6.86755e+01  1.41079e+02  8.16670e+01
       O -2.27500e+01  2.97573e+01  1.62038e+01
       H -2.19436e+01  2.83448e+01  1.66938e+01
       H -2.44736e+01  2.94357e+01  1.66757e+01
       O  5.18509e+00 -1.67628e+01 -3.82150e-01
       H  3.47298e+00 -1.63659e+01 -4.95264e-01
       H  5.90921e+00 -1.71832e+01 -2.03306e+00
       O  3.11661e+01 -9.03226e+00  3.98271e+01
       H  3.21371e+01 -8.87621e+00  4.13501e+01
       H  2.95877e+01 -9.93776e+00  4.02232e+01
       O  8.29542e+01 -5.03617e+01  1.11774e+02
       H  8.31275e+01 -5.20672e+01  1.11169e+02
       H  8.24537e+01 -4.95204e+01  1.10246e+02
       O -2.83716e+01 -7.99695e+01 -6.05728e+01
       H -2.98405e+01 -8.06308e+01 -5.96564e+01
       H -2.70061e+01 -8.07411e+01 -5.97058e+01
       O -1.03263e+02  6.93334e+01  1.86178e+01
       H -1.04798e+02  6.97832e+01  1.77988e+01
       H -1.02006e+02  7.02989e+01  1.76218e+01
       O -8.83959e+01  7.80963e+01  4.22422e+01
       H -8.66956e+01  7.80104e+01  4.15114e+01
       H -8.93522e+01  7.65661e+01  4.19103e+01
       O -1.31243e+01 -6.77306e+01 -1.78208e+01
       H -1.21655e+01 -6.80155e+01 -1.63512e+01
       H -1.47884e+01 -6.87144e+01 -1.76767e+01
       O  8.70681e+01 -5.41558e+01  2.50358e+01
       H  8.56094e+01 -5.29856e+01  2.51525e+01
       H  8.73725e+01 -5.47080e+01  2.66974e+01
       O -1.54802e+01 -1.32212e+00  2.03195e+01
       H -1.41779e+01 -3.18364e-01  2.10792e+01
       H -1.45695e+01 -2.21004e+00  1.89858e+01
       O -6.94668e+01 -1.28713e+01 -3.99066e+01
       H -6.88467e+01 -1.28538e+01 -3.80930e+01
       H -7.10551e+01 -1.36989e+01 -3.98897e+01
       O  4.44111e+01 -5.15715e+01 -4.36070e+01
       H  4.33207e+01 -5.28099e+01 -4.28242e+01
       H  4.39164e+01 -5.14757e+01 -4.53848e+01
       O -2.67840e+01  1.12017e+02 -5.02576e+01
       H -2.74203e+01  1.13624e+02 -4.99079e+01
       H -2.50252e+01  1.12094e+02 -5.03368e+01
       O  1.05852e+02  5.33914e+01  4.87193e+01
       H  1.06323e+02  5.30643e+01  5.05072e+01
       H  1.04294e+02  5.42882e+01  4.87260e+01
       O  9.79769e+01  7.50416e+01 -1.26676e+01
       H  9.66667e+01  7.53783e+01 -1.13575e+01
       H  9.85206e+01  7.32310e+01 -1.23743e+01
       O -2.33962e+01  5.62927e+01  2.22386e+01
       H -2.43868e+01  5.77076e+01  2.28982e+01
       H -2.46127e+01  5.51719e+01  2.18002e+01
       O  4.72445e+01  4.07796e+00  5.45918e+01
       H  4.67035e+01  5.76130e+00  5.46207e+01
       H  4.81871e+01  3.78432e+00  5.61640e+01
       O  8.04918e+00  8.25186e+01 -3.49362e+01
       H  7.96089e+00  8.37237e+01 -3.36434e+01
       H  9.16866e+00  8.31848e+01 -3.62603e+01
       O  8.69368e+01 -4.52369e+01  3.28898e+01
       H  8.85394e+01 -4.59375e+01  3.27771e+01
       H  8.67543e+01 -4.49038e+01  3.46921e+01
       O -9.96109e+01  1.34369e+01  4.12825e+01
       H -9.78983e+01  1.36125e+01  4.07900e+01
       H -9.96202e+01  1.46387e+01  4.26916e+01
       O  1.43853e+01 -2.41398e+00  3.06456e+01
       H  1.42748e+01 -1.01711e+00  3.17395e+01
       H  1.28740e+01 -3.40205e+00  3.10667e+01
       O -3.54647e+01 -2.64229e+01  1.92455e+00
       H -3.51440e+01 -2.49173e+01  8.70098e-01
       H -3.45812e+01 -2.62972e+01  3.51585e+00
       O  3.76048e+01  1.34322e+01  2.18586e+01
       H  3.81096e+01  1.18307e+01  2.25148e+01
       H  3.83194e+01  1.47461e+01  2.29915e+01
       O  8.62781e+01 -3.91382e+01 -4.73880e+01
       H  8.75748e+01 -3.97430e+01 -4.62267e+01
       H  8.49439e+01 -4.02828e+01 -4.69175e+01
       O -1.18077e+01 -4.54023e+01  2.16084e+01
       H -1.18238e+01 -4.45812e+01  1.99998e+01
       H -1.25705e+01 -4.40386e+01  2.26525e+01
       O -7.91498e+01  2.79343e+01  8.55165e+01
       H -7.76852e+01  2.68643e+01  8.61060e+01
       H -7.98822e+01  2.83252e+01  8.70556e+01
       O  6.95832e+00 -3.61166e+01  2.47542e+01
       H  5.59996e+00 -3.53525e+01  2.57765e+01
       H  6.25332e+00 -3.77582e+01  2.43676e+01
       O -9.29163e+01  2.59893e+01  2.71900e+01
       H -9.42085e+01  2.63918e+01  2.83972e+01
       H -9.26266e+01  2.76285e+01  2.63311e+01
       O  6.32849e+00  7.27820e+01  6.81432e+00
       H  4.91952e+00  7.36908e+01  5.97605e+00
       H  6.25362e+00  7.12227e+01  5.90244e+00
       O -1.27790e+02 -5.90715e+01 -3.47914e+01
       H -1.28947e+02 -5.95045e+01 -3.62174e+01
       H -1.28329e+02 -5.74077e+01 -3.41472e+01
       O  3.35819e+01 -6.19579e+01 -6.62909e+01
       H  3.25159e+01 -6.34662e+01 -6.59608e+01
       H  3.28610e+01 -6.12854e+01 -6.78186e+01
       O  3.93836e+01  4.08363e+01  3.94282e+01
       H  4.09696e+01  4.00695e+01  4.00172e+01
       H  3.95678e+01  4.23568e+01  4.05894e+01
       O -4.58902e+01  4.21923e+01  1.00102e+02
       H -4.76568e+01  4.26845e+01  9.99048e+01
       H -4.55840e+01  4.04274e+01  9.95857e+01
       O -4.00633e+01  1.37444e+02  8.33981e+01
       H -3.98169e+01  1.36355e+02  8.47521e+01
       H -4.10537e+01  1.38715e+02  8.41566e+01
       O  4.14096e+01  2.96609e+01  7.67706e+01
       H  4.14605e+01  2.85928e+01  7.53996e+01
       H  4.04432e+01  2.86849e+01  7.79883e+01
       O  5.19850e+01 -2.17553e+01 -2.94293e+01
       H  5.11932e+01 -2.23723e+01 -2.79107e+01
       H  5.35654e+01 -2.26134e+01 -2.95960e+01
       O  2.01459e+02 -5.34614e+01  7.88564e+00
       H  2.00529e+02 -5.38240e+01  9.40824e+00
       H  2.00103e+02 -5.28585e+01  6.91970e+00
       O -4.44590e+01 -3.80754e+01 -3.50929e+01
       H -4.52625e+01 -3.91896e+01 -3.37764e+01
       H -4.27244e+01 -3.76081e+01 -3.47895e+01
       O  1.36876e+00 -3.02281e+01 -1.38462e+01
       H  1.53697e+00 -2.98537e+01 -1.56314e+01
       H  1.26266e-01 -2.91610e+01 -1.30869e+01
       O  3.30766e+01 -8.93685e+00  6.82126e+01
       H  3.20340e+01 -1.03179e+01  6.86125e+01
       H  3.48262e+01 -9.22484e+00  6.87841e+01
       O  4.12178e+01 -5.49681e+01  6.28637e+00
       H  4.17905e+01 -5.54910e+01  8.01548e+00
       H  4.03547e+01 -5.34272e+01  6.79030e+00
       O -4.37328e+01 -4.94388e+01 -8.41592e+01
       H -4.42689e+01 -5.11704e+01 -8.43528e+01
       H -4.30665e+01 -4.92700e+01 -8.58511e+01
       O  2.68118e+01  1.36629e+01  2.73106e+01
       H  2.53418e+01  1.28354e+01  2.67122e+01
       H  2.71680e+01  1.31028e+01  2.90949e+01
       O -6.76684e+01  3.48284e+01  4.22756e+01
       H -6.90441e+01  3.40351e+01  4.32650e+01
       H -6.66131e+01  3.33154e+01  4.22390e+01
       O -6.98906e+01  6.65486e+01 -7.68173e-01
       H -6.95260e+01  6.60827e+01  8.97842e-01
       H -6.82286e+01  6.64837e+01 -1.51859e+00
       O -4.77442e+01 -9.77769e+00  1.34203e+01
       H -4.68098e+01 -1.12843e+01  1.34798e+01
       H -4.67744e+01 -8.81269e+00  1.22745e+01
       O  7.00821e+00 -5.15149e+00  4.73129e+01
       H  7.68562e+00 -3.82061e+00  4.62532e+01
       H  7.79359e+00 -6.70090e+00  4.67241e+01
       O  3.40852e+01  4.69356e+01  1.78696e+02
       H  3.31592e+01  4.83752e+01  1.78396e+02
       H  3.30247e+01  4.56114e+01  1.78097e+02
       O  8.94825e+00 -1.80029e+01  3.64411e+01
       H  7.17533e+00 -1.79935e+01  3.59046e+01
       H  9.27159e+00 -1.62603e+01  3.63974e+01
       O -5.11776e+01  2.33006e-01 -1.11338e+02
       H -5.06845e+01 -8.14933e-01 -1.12691e+02
       H -5.03089e+01  1.85079e+00 -1.11515e+02
       O  2.89435e+01  5.47344e+01  1.25883e+02
       H  2.77877e+01  5.60922e+01  1.26208e+02
       H  2.85709e+01  5.35431e+01  1.27169e+02
       O  1.30779e+01 -6.10308e+01  1.74272e+01
       H  1.37933e+01 -6.05648e+01  1.59102e+01
       H  1.32940e+01 -5.97135e+01  1.86676e+01
       O  8.90928e-01  2.40764e+01  9.38635e+01
       H  8.17287e-01  2.46567e+01  9.55421e+01
       H  7.17783e-01  2.22259e+01  9.41275e+01
       O  9.30319e+01  7.52529e+01 -3.93134e+00
       H  9.16608e+01  7.53852e+01 -2.72832e+00
       H  9.42415e+01  7.41691e+01 -3.26263e+00
       O  6.92243e+01 -3.58903e+01  7.39787e+01
       H  6.79872e+01 -3.46348e+01  7.38930e+01
       H  6.91158e+01 -3.66498e+01  7.56238e+01
       O -2.93311e+01  2.11000e+01  4.69365e+01
       H -3.02959e+01  2.16566e+01  4.54951e+01
       H -3.05250e+01  1.98456e+01  4.74690e+01
       O  1.64193e+02  3.24177e+01  7.66579e+00
       H  1.63668e+02  3.23530e+01  9.40023e+00
       H  1.62814e+02  3.17116e+01  6.74733e+00
       O -5.22102e+01  9.61393e+01 -7.94799e+01
       H -5.10744e+01  9.69008e+01 -7.84407e+01
       H -5.12807e+01  9.51033e+01 -8.06049e+01
       O -3.54014e+01 -4.22592e+01 -6.76284e+00
       H -3.54268e+01 -4.05360e+01 -6.46873e+00
       H -3.62340e+01 -4.25525e+01 -8.39170e+00
