7
# CELL(abcABC):   13.38377    13.38377    13.38377    90.00000    90.00000    90.00000  Step:           0  Bead:       5 positions{angstrom}  cell{angstrom}
       O  5.54810e-01 -9.55480e-01 -1.98800e-01
       O  2.93127e+00 -8.16860e-01  7.40000e-03
       H  1.68750e-01 -1.34489e+00 -9.96690e-01
       H  1.74588e+00 -9.04260e-01 -1.15740e-01
       H  3.25541e+00 -7.18230e-01  9.14770e-01
       H  3.48724e+00 -1.46159e+00 -4.53640e-01
       H  8.14400e-02 -1.36290e-01  8.53000e-03
7
# CELL(abcABC):   13.38377    13.38377    13.38377    90.00000    90.00000    90.00000  Step:           1  Bead:       5 positions{angstrom}  cell{angstrom}
       O  5.54810e-01 -9.55480e-01 -1.98800e-01
       O  2.93128e+00 -8.16841e-01  7.40432e-03
       H  1.68752e-01 -1.34489e+00 -9.96691e-01
       H  1.74588e+00 -9.04260e-01 -1.15740e-01
       H  3.25541e+00 -7.18238e-01  9.14765e-01
       H  3.48724e+00 -1.46159e+00 -4.53634e-01
       H  8.14400e-02 -1.36290e-01  8.53000e-03
7
# CELL(abcABC):   13.38377    13.38377    13.38377    90.00000    90.00000    90.00000  Step:           2  Bead:       5 positions{angstrom}  cell{angstrom}
       O  5.54810e-01 -9.55480e-01 -1.98800e-01
       O  2.93130e+00 -8.16812e-01  7.41070e-03
       H  1.68755e-01 -1.34488e+00 -9.96693e-01
       H  1.74588e+00 -9.04260e-01 -1.15740e-01
       H  3.25542e+00 -7.18250e-01  9.14757e-01
       H  3.48723e+00 -1.46160e+00 -4.53625e-01
       H  8.14400e-02 -1.36290e-01  8.53000e-03
7
# CELL(abcABC):   13.38377    13.38377    13.38377    90.00000    90.00000    90.00000  Step:           3  Bead:       5 positions{angstrom}  cell{angstrom}
       O  5.54810e-01 -9.55480e-01 -1.98800e-01
       O  2.93132e+00 -8.16774e-01  7.41901e-03
       H  1.68759e-01 -1.34487e+00 -9.96695e-01
       H  1.74588e+00 -9.04260e-01 -1.15740e-01
       H  3.25543e+00 -7.18267e-01  9.14747e-01
       H  3.48723e+00 -1.46161e+00 -4.53612e-01
       H  8.14400e-02 -1.36290e-01  8.53000e-03
7
# CELL(abcABC):   13.38377    13.38377    13.38377    90.00000    90.00000    90.00000  Step:           4  Bead:       5 positions{angstrom}  cell{angstrom}
       O  5.54810e-01 -9.55480e-01 -1.98800e-01
       O  2.93135e+00 -8.16726e-01  7.42905e-03
       H  1.68763e-01 -1.34486e+00 -9.96699e-01
       H  1.74588e+00 -9.04260e-01 -1.15740e-01
       H  3.25544e+00 -7.18287e-01  9.14735e-01
       H  3.48722e+00 -1.46162e+00 -4.53596e-01
       H  8.14400e-02 -1.36290e-01  8.53000e-03
7
# CELL(abcABC):   13.38377    13.38377    13.38377    90.00000    90.00000    90.00000  Step:           5  Bead:       5 positions{angstrom}  cell{angstrom}
       O  5.54810e-01 -9.55480e-01 -1.98800e-01
       O  2.93139e+00 -8.16668e-01  7.44060e-03
       H  1.68769e-01 -1.34484e+00 -9.96702e-01
       H  1.74588e+00 -9.04260e-01 -1.15740e-01
       H  3.25546e+00 -7.18312e-01  9.14720e-01
       H  3.48721e+00 -1.46163e+00 -4.53577e-01
       H  8.14400e-02 -1.36290e-01  8.53000e-03
7
# CELL(abcABC):   13.38377    13.38377    13.38377    90.00000    90.00000    90.00000  Step:           6  Bead:       5 positions{angstrom}  cell{angstrom}
       O  5.54810e-01 -9.55480e-01 -1.98800e-01
       O  2.93143e+00 -8.16591e-01  7.45476e-03
       H  1.68777e-01 -1.34482e+00 -9.96708e-01
       H  1.74588e+00 -9.04260e-01 -1.15740e-01
       H  3.25548e+00 -7.18345e-01  9.14702e-01
       H  3.48720e+00 -1.46165e+00 -4.53551e-01
       H  8.14400e-02 -1.36290e-01  8.53000e-03
7
# CELL(abcABC):   13.38377    13.38377    13.38377    90.00000    90.00000    90.00000  Step:           7  Bead:       5 positions{angstrom}  cell{angstrom}
       O  5.54810e-01 -9.55480e-01 -1.98800e-01
       O  2.93149e+00 -8.16490e-01  7.47146e-03
       H  1.68787e-01 -1.34480e+00 -9.96715e-01
       H  1.74588e+00 -9.04260e-01 -1.15740e-01
       H  3.25551e+00 -7.18389e-01  9.14679e-01
       H  3.48719e+00 -1.46167e+00 -4.53516e-01
       H  8.14400e-02 -1.36290e-01  8.53000e-03
7
# CELL(abcABC):   13.38377    13.38377    13.38377    90.00000    90.00000    90.00000  Step:           8  Bead:       5 positions{angstrom}  cell{angstrom}
       O  5.54810e-01 -9.55480e-01 -1.98800e-01
       O  2.93157e+00 -8.16359e-01  7.49014e-03
       H  1.68800e-01 -1.34476e+00 -9.96724e-01
       H  1.74588e+00 -9.04260e-01 -1.15740e-01
       H  3.25554e+00 -7.18446e-01  9.14652e-01
       H  3.48717e+00 -1.46169e+00 -4.53469e-01
       H  8.14400e-02 -1.36290e-01  8.53000e-03
7
# CELL(abcABC):   13.38377    13.38377    13.38377    90.00000    90.00000    90.00000  Step:           9  Bead:       5 positions{angstrom}  cell{angstrom}
       O  5.54810e-01 -9.55480e-01 -1.98800e-01
       O  2.93167e+00 -8.16188e-01  7.50915e-03
       H  1.68818e-01 -1.34472e+00 -9.96738e-01
       H  1.74588e+00 -9.04260e-01 -1.15740e-01
       H  3.25559e+00 -7.18520e-01  9.14620e-01
       H  3.48714e+00 -1.46173e+00 -4.53407e-01
       H  8.14400e-02 -1.36290e-01  8.53000e-03
7
# CELL(abcABC):   13.38377    13.38377    13.38377    90.00000    90.00000    90.00000  Step:          10  Bead:       5 positions{angstrom}  cell{angstrom}
       O  5.54810e-01 -9.55480e-01 -1.98800e-01
       O  2.93180e+00 -8.15973e-01  7.52552e-03
       H  1.68840e-01 -1.34467e+00 -9.96756e-01
       H  1.74588e+00 -9.04260e-01 -1.15740e-01
       H  3.25566e+00 -7.18615e-01  9.14586e-01
       H  3.48710e+00 -1.46177e+00 -4.53327e-01
       H  8.14400e-02 -1.36290e-01  8.53000e-03
