7
# CELL(abcABC):   13.38377    13.38377    13.38377    90.00000    90.00000    90.00000  Step:           0  Bead:       2 positions{angstrom}  cell{angstrom}
       O  5.54810e-01 -9.55480e-01 -1.98800e-01
       O  2.92527e+00 -8.12630e-01  5.33400e-02
       H  1.68750e-01 -1.34489e+00 -9.96690e-01
       H  1.74588e+00 -9.04260e-01 -1.15740e-01
       H  3.25909e+00 -1.15600e+00  8.95230e-01
       H  3.51292e+00 -1.10630e+00 -6.57820e-01
       H  8.14400e-02 -1.36290e-01  8.53000e-03
7
# CELL(abcABC):   13.38377    13.38377    13.38377    90.00000    90.00000    90.00000  Step:           1  Bead:       2 positions{angstrom}  cell{angstrom}
       O  5.54810e-01 -9.55480e-01 -1.98800e-01
       O  2.92527e+00 -8.12623e-01  5.33453e-02
       H  1.68749e-01 -1.34489e+00 -9.96689e-01
       H  1.74588e+00 -9.04260e-01 -1.15740e-01
       H  3.25909e+00 -1.15600e+00  8.95226e-01
       H  3.51292e+00 -1.10630e+00 -6.57818e-01
       H  8.14400e-02 -1.36290e-01  8.53000e-03
7
# CELL(abcABC):   13.38377    13.38377    13.38377    90.00000    90.00000    90.00000  Step:           2  Bead:       2 positions{angstrom}  cell{angstrom}
       O  5.54810e-01 -9.55480e-01 -1.98800e-01
       O  2.92528e+00 -8.12612e-01  5.33566e-02
       H  1.68748e-01 -1.34489e+00 -9.96688e-01
       H  1.74588e+00 -9.04260e-01 -1.15740e-01
       H  3.25909e+00 -1.15604e+00  8.95214e-01
       H  3.51292e+00 -1.10628e+00 -6.57825e-01
       H  8.14400e-02 -1.36290e-01  8.53000e-03
7
# CELL(abcABC):   13.38377    13.38377    13.38377    90.00000    90.00000    90.00000  Step:           3  Bead:       2 positions{angstrom}  cell{angstrom}
       O  5.54810e-01 -9.55480e-01 -1.98800e-01
       O  2.92528e+00 -8.12598e-01  5.33791e-02
       H  1.68746e-01 -1.34489e+00 -9.96687e-01
       H  1.74588e+00 -9.04260e-01 -1.15740e-01
       H  3.25910e+00 -1.15615e+00  8.95182e-01
       H  3.51293e+00 -1.10619e+00 -6.57857e-01
       H  8.14400e-02 -1.36290e-01  8.53000e-03
7
# CELL(abcABC):   13.38377    13.38377    13.38377    90.00000    90.00000    90.00000  Step:           4  Bead:       2 positions{angstrom}  cell{angstrom}
       O  5.54810e-01 -9.55480e-01 -1.98800e-01
       O  2.92529e+00 -8.12582e-01  5.34204e-02
       H  1.68744e-01 -1.34489e+00 -9.96685e-01
       H  1.74588e+00 -9.04260e-01 -1.15740e-01
       H  3.25911e+00 -1.15642e+00  8.95115e-01
       H  3.51294e+00 -1.10596e+00 -6.57937e-01
       H  8.14400e-02 -1.36290e-01  8.53000e-03
7
# CELL(abcABC):   13.38377    13.38377    13.38377    90.00000    90.00000    90.00000  Step:           5  Bead:       2 positions{angstrom}  cell{angstrom}
       O  5.54810e-01 -9.55480e-01 -1.98800e-01
       O  2.92529e+00 -8.12564e-01  5.34903e-02
       H  1.68742e-01 -1.34489e+00 -9.96683e-01
       H  1.74588e+00 -9.04260e-01 -1.15740e-01
       H  3.25912e+00 -1.15693e+00  8.94992e-01
       H  3.51296e+00 -1.10551e+00 -6.58095e-01
       H  8.14400e-02 -1.36290e-01  8.53000e-03
7
# CELL(abcABC):   13.38377    13.38377    13.38377    90.00000    90.00000    90.00000  Step:           6  Bead:       2 positions{angstrom}  cell{angstrom}
       O  5.54810e-01 -9.55480e-01 -1.98800e-01
       O  2.92529e+00 -8.12544e-01  5.36153e-02
       H  1.68739e-01 -1.34489e+00 -9.96680e-01
       H  1.74588e+00 -9.04260e-01 -1.15740e-01
       H  3.25916e+00 -1.15791e+00  8.94762e-01
       H  3.51300e+00 -1.10465e+00 -6.58403e-01
       H  8.14400e-02 -1.36290e-01  8.53000e-03
7
# CELL(abcABC):   13.38377    13.38377    13.38377    90.00000    90.00000    90.00000  Step:           7  Bead:       2 positions{angstrom}  cell{angstrom}
       O  5.54810e-01 -9.55480e-01 -1.98800e-01
       O  2.92529e+00 -8.12523e-01  5.38315e-02
       H  1.68734e-01 -1.34488e+00 -9.96676e-01
       H  1.74588e+00 -9.04260e-01 -1.15740e-01
       H  3.25922e+00 -1.15969e+00  8.94350e-01
       H  3.51307e+00 -1.10307e+00 -6.58966e-01
       H  8.14400e-02 -1.36290e-01  8.53000e-03
7
# CELL(abcABC):   13.38377    13.38377    13.38377    90.00000    90.00000    90.00000  Step:           8  Bead:       2 positions{angstrom}  cell{angstrom}
       O  5.54810e-01 -9.55480e-01 -1.98800e-01
       O  2.92528e+00 -8.12504e-01  5.41940e-02
       H  1.68728e-01 -1.34488e+00 -9.96671e-01
       H  1.74588e+00 -9.04260e-01 -1.15740e-01
       H  3.25931e+00 -1.16276e+00  8.93642e-01
       H  3.51319e+00 -1.10033e+00 -6.59944e-01
       H  8.14400e-02 -1.36290e-01  8.53000e-03
7
# CELL(abcABC):   13.38377    13.38377    13.38377    90.00000    90.00000    90.00000  Step:           9  Bead:       2 positions{angstrom}  cell{angstrom}
       O  5.54810e-01 -9.55480e-01 -1.98800e-01
       O  2.92525e+00 -8.12495e-01  5.47751e-02
       H  1.68720e-01 -1.34488e+00 -9.96664e-01
       H  1.74588e+00 -9.04260e-01 -1.15740e-01
       H  3.25947e+00 -1.16778e+00  8.92485e-01
       H  3.51338e+00 -1.09583e+00 -6.61542e-01
       H  8.14400e-02 -1.36290e-01  8.53000e-03
7
# CELL(abcABC):   13.38377    13.38377    13.38377    90.00000    90.00000    90.00000  Step:          10  Bead:       2 positions{angstrom}  cell{angstrom}
       O  5.54810e-01 -9.55480e-01 -1.98800e-01
       O  2.92522e+00 -8.12508e-01  5.56407e-02
       H  1.68709e-01 -1.34488e+00 -9.96655e-01
       H  1.74588e+00 -9.04260e-01 -1.15740e-01
       H  3.25971e+00 -1.17533e+00  8.90732e-01
       H  3.51367e+00 -1.08905e+00 -6.63940e-01
       H  8.14400e-02 -1.36290e-01  8.53000e-03
