7
# CELL(abcABC):   13.38377    13.38377    13.38377    90.00000    90.00000    90.00000  Step:           0  Bead:      14 positions{angstrom}  cell{angstrom}
       O  5.54810e-01 -9.55480e-01 -1.98800e-01
       O  2.93844e+00 -9.32270e-01 -4.53800e-02
       H  1.68750e-01 -1.34489e+00 -9.96690e-01
       H  1.74588e+00 -9.04260e-01 -1.15740e-01
       H  3.38410e+00 -7.32600e-02 -8.56300e-02
       H  3.34228e+00 -1.46001e+00  6.58690e-01
       H  8.14400e-02 -1.36290e-01  8.53000e-03
7
# CELL(abcABC):   13.38377    13.38377    13.38377    90.00000    90.00000    90.00000  Step:           1  Bead:      14 positions{angstrom}  cell{angstrom}
       O  5.54810e-01 -9.55480e-01 -1.98800e-01
       O  2.93844e+00 -9.32383e-01 -4.53582e-02
       H  1.68764e-01 -1.34489e+00 -9.96697e-01
       H  1.74588e+00 -9.04260e-01 -1.15740e-01
       H  3.38429e+00 -7.34481e-02 -8.69893e-02
       H  3.34214e+00 -1.45918e+00  6.59679e-01
       H  8.14400e-02 -1.36290e-01  8.53000e-03
7
# CELL(abcABC):   13.38377    13.38377    13.38377    90.00000    90.00000    90.00000  Step:           2  Bead:      14 positions{angstrom}  cell{angstrom}
       O  5.54810e-01 -9.55480e-01 -1.98800e-01
       O  2.93844e+00 -9.32550e-01 -4.53259e-02
       H  1.68784e-01 -1.34489e+00 -9.96708e-01
       H  1.74588e+00 -9.04260e-01 -1.15740e-01
       H  3.38457e+00 -7.37274e-02 -8.90032e-02
       H  3.34192e+00 -1.45795e+00  6.61145e-01
       H  8.14400e-02 -1.36290e-01  8.53000e-03
7
# CELL(abcABC):   13.38377    13.38377    13.38377    90.00000    90.00000    90.00000  Step:           3  Bead:      14 positions{angstrom}  cell{angstrom}
       O  5.54810e-01 -9.55480e-01 -1.98800e-01
       O  2.93844e+00 -9.32767e-01 -4.52834e-02
       H  1.68812e-01 -1.34490e+00 -9.96723e-01
       H  1.74588e+00 -9.04260e-01 -1.15740e-01
       H  3.38495e+00 -7.40941e-02 -9.16351e-02
       H  3.34164e+00 -1.45634e+00  6.63059e-01
       H  8.14400e-02 -1.36290e-01  8.53000e-03
7
# CELL(abcABC):   13.38377    13.38377    13.38377    90.00000    90.00000    90.00000  Step:           4  Bead:      14 positions{angstrom}  cell{angstrom}
       O  5.54810e-01 -9.55480e-01 -1.98800e-01
       O  2.93844e+00 -9.33029e-01 -4.52310e-02
       H  1.68846e-01 -1.34490e+00 -9.96741e-01
       H  1.74588e+00 -9.04260e-01 -1.15740e-01
       H  3.38540e+00 -7.45433e-02 -9.48369e-02
       H  3.34130e+00 -1.45438e+00  6.65386e-01
       H  8.14400e-02 -1.36290e-01  8.53000e-03
7
# CELL(abcABC):   13.38377    13.38377    13.38377    90.00000    90.00000    90.00000  Step:           5  Bead:      14 positions{angstrom}  cell{angstrom}
       O  5.54810e-01 -9.55480e-01 -1.98800e-01
       O  2.93845e+00 -9.33329e-01 -4.51694e-02
       H  1.68889e-01 -1.34490e+00 -9.96764e-01
       H  1.74588e+00 -9.04260e-01 -1.15740e-01
       H  3.38592e+00 -7.50693e-02 -9.85494e-02
       H  3.34090e+00 -1.45210e+00  6.68081e-01
       H  8.14400e-02 -1.36290e-01  8.53000e-03
7
# CELL(abcABC):   13.38377    13.38377    13.38377    90.00000    90.00000    90.00000  Step:           6  Bead:      14 positions{angstrom}  cell{angstrom}
       O  5.54810e-01 -9.55480e-01 -1.98800e-01
       O  2.93846e+00 -9.33694e-01 -4.50907e-02
       H  1.68945e-01 -1.34491e+00 -9.96794e-01
       H  1.74588e+00 -9.04260e-01 -1.15740e-01
       H  3.38657e+00 -7.57328e-02 -1.03166e-01
       H  3.34039e+00 -1.44926e+00  6.71428e-01
       H  8.14400e-02 -1.36290e-01  8.53000e-03
7
# CELL(abcABC):   13.38377    13.38377    13.38377    90.00000    90.00000    90.00000  Step:           7  Bead:      14 positions{angstrom}  cell{angstrom}
       O  5.54810e-01 -9.55480e-01 -1.98800e-01
       O  2.93849e+00 -9.34125e-01 -4.49918e-02
       H  1.69019e-01 -1.34492e+00 -9.96833e-01
       H  1.74588e+00 -9.04260e-01 -1.15740e-01
       H  3.38737e+00 -7.65531e-02 -1.08753e-01
       H  3.33977e+00 -1.44581e+00  6.75469e-01
       H  8.14400e-02 -1.36290e-01  8.53000e-03
7
# CELL(abcABC):   13.38377    13.38377    13.38377    90.00000    90.00000    90.00000  Step:           8  Bead:      14 positions{angstrom}  cell{angstrom}
       O  5.54810e-01 -9.55480e-01 -1.98800e-01
       O  2.93854e+00 -9.34609e-01 -4.48684e-02
       H  1.69117e-01 -1.34493e+00 -9.96884e-01
       H  1.74588e+00 -9.04260e-01 -1.15740e-01
       H  3.38830e+00 -7.75442e-02 -1.15293e-01
       H  3.33901e+00 -1.44175e+00  6.80181e-01
       H  8.14400e-02 -1.36290e-01  8.53000e-03
7
# CELL(abcABC):   13.38377    13.38377    13.38377    90.00000    90.00000    90.00000  Step:           9  Bead:      14 positions{angstrom}  cell{angstrom}
       O  5.54810e-01 -9.55480e-01 -1.98800e-01
       O  2.93864e+00 -9.35113e-01 -4.47169e-02
       H  1.69245e-01 -1.34494e+00 -9.96952e-01
       H  1.74588e+00 -9.04260e-01 -1.15740e-01
       H  3.38934e+00 -7.87047e-02 -1.22594e-01
       H  3.33813e+00 -1.43717e+00  6.85411e-01
       H  8.14400e-02 -1.36290e-01  8.53000e-03
7
# CELL(abcABC):   13.38377    13.38377    13.38377    90.00000    90.00000    90.00000  Step:          10  Bead:      14 positions{angstrom}  cell{angstrom}
       O  5.54810e-01 -9.55480e-01 -1.98800e-01
       O  2.93880e+00 -9.35585e-01 -4.45348e-02
       H  1.69409e-01 -1.34496e+00 -9.97037e-01
       H  1.74588e+00 -9.04260e-01 -1.15740e-01
       H  3.39045e+00 -8.00032e-02 -1.30233e-01
       H  3.33715e+00 -1.43232e+00  6.90834e-01
       H  8.14400e-02 -1.36290e-01  8.53000e-03
