7
# CELL(abcABC):   13.38377    13.38377    13.38377    90.00000    90.00000    90.00000  Step:           0  Bead:       8 positions{angstrom}  cell{angstrom}
       O  5.54810e-01 -9.55480e-01 -1.98800e-01
       O  2.93625e+00 -8.43700e-01 -3.02800e-02
       H  1.68750e-01 -1.34489e+00 -9.96690e-01
       H  1.74588e+00 -9.04260e-01 -1.15740e-01
       H  3.28048e+00 -3.29190e-01  7.14640e-01
       H  3.44177e+00 -1.66638e+00 -1.00690e-01
       H  8.14400e-02 -1.36290e-01  8.53000e-03
7
# CELL(abcABC):   13.38377    13.38377    13.38377    90.00000    90.00000    90.00000  Step:           1  Bead:       8 positions{angstrom}  cell{angstrom}
       O  5.54810e-01 -9.55480e-01 -1.98800e-01
       O  2.93626e+00 -8.43674e-01 -3.02822e-02
       H  1.68758e-01 -1.34488e+00 -9.96695e-01
       H  1.74588e+00 -9.04260e-01 -1.15740e-01
       H  3.28049e+00 -3.29202e-01  7.14638e-01
       H  3.44176e+00 -1.66638e+00 -1.00682e-01
       H  8.14400e-02 -1.36290e-01  8.53000e-03
7
# CELL(abcABC):   13.38377    13.38377    13.38377    90.00000    90.00000    90.00000  Step:           2  Bead:       8 positions{angstrom}  cell{angstrom}
       O  5.54810e-01 -9.55480e-01 -1.98800e-01
       O  2.93629e+00 -8.43635e-01 -3.02857e-02
       H  1.68769e-01 -1.34487e+00 -9.96701e-01
       H  1.74588e+00 -9.04260e-01 -1.15740e-01
       H  3.28050e+00 -3.29219e-01  7.14635e-01
       H  3.44175e+00 -1.66639e+00 -1.00670e-01
       H  8.14400e-02 -1.36290e-01  8.53000e-03
7
# CELL(abcABC):   13.38377    13.38377    13.38377    90.00000    90.00000    90.00000  Step:           3  Bead:       8 positions{angstrom}  cell{angstrom}
       O  5.54810e-01 -9.55480e-01 -1.98800e-01
       O  2.93632e+00 -8.43584e-01 -3.02906e-02
       H  1.68784e-01 -1.34486e+00 -9.96711e-01
       H  1.74588e+00 -9.04260e-01 -1.15740e-01
       H  3.28053e+00 -3.29242e-01  7.14631e-01
       H  3.44173e+00 -1.66639e+00 -1.00654e-01
       H  8.14400e-02 -1.36290e-01  8.53000e-03
7
# CELL(abcABC):   13.38377    13.38377    13.38377    90.00000    90.00000    90.00000  Step:           4  Bead:       8 positions{angstrom}  cell{angstrom}
       O  5.54810e-01 -9.55480e-01 -1.98800e-01
       O  2.93635e+00 -8.43519e-01 -3.02972e-02
       H  1.68803e-01 -1.34484e+00 -9.96722e-01
       H  1.74588e+00 -9.04260e-01 -1.15740e-01
       H  3.28055e+00 -3.29270e-01  7.14627e-01
       H  3.44171e+00 -1.66640e+00 -1.00635e-01
       H  8.14400e-02 -1.36290e-01  8.53000e-03
7
# CELL(abcABC):   13.38377    13.38377    13.38377    90.00000    90.00000    90.00000  Step:           5  Bead:       8 positions{angstrom}  cell{angstrom}
       O  5.54810e-01 -9.55480e-01 -1.98800e-01
       O  2.93640e+00 -8.43442e-01 -3.03060e-02
       H  1.68826e-01 -1.34481e+00 -9.96736e-01
       H  1.74588e+00 -9.04260e-01 -1.15740e-01
       H  3.28058e+00 -3.29305e-01  7.14623e-01
       H  3.44169e+00 -1.66641e+00 -1.00610e-01
       H  8.14400e-02 -1.36290e-01  8.53000e-03
7
# CELL(abcABC):   13.38377    13.38377    13.38377    90.00000    90.00000    90.00000  Step:           6  Bead:       8 positions{angstrom}  cell{angstrom}
       O  5.54810e-01 -9.55480e-01 -1.98800e-01
       O  2.93646e+00 -8.43341e-01 -3.03189e-02
       H  1.68857e-01 -1.34478e+00 -9.96756e-01
       H  1.74588e+00 -9.04260e-01 -1.15740e-01
       H  3.28062e+00 -3.29350e-01  7.14618e-01
       H  3.44166e+00 -1.66642e+00 -1.00578e-01
       H  8.14400e-02 -1.36290e-01  8.53000e-03
7
# CELL(abcABC):   13.38377    13.38377    13.38377    90.00000    90.00000    90.00000  Step:           7  Bead:       8 positions{angstrom}  cell{angstrom}
       O  5.54810e-01 -9.55480e-01 -1.98800e-01
       O  2.93654e+00 -8.43209e-01 -3.03381e-02
       H  1.68898e-01 -1.34474e+00 -9.96781e-01
       H  1.74588e+00 -9.04260e-01 -1.15740e-01
       H  3.28068e+00 -3.29409e-01  7.14614e-01
       H  3.44161e+00 -1.66643e+00 -1.00536e-01
       H  8.14400e-02 -1.36290e-01  8.53000e-03
7
# CELL(abcABC):   13.38377    13.38377    13.38377    90.00000    90.00000    90.00000  Step:           8  Bead:       8 positions{angstrom}  cell{angstrom}
       O  5.54810e-01 -9.55480e-01 -1.98800e-01
       O  2.93664e+00 -8.43041e-01 -3.03670e-02
       H  1.68951e-01 -1.34469e+00 -9.96815e-01
       H  1.74588e+00 -9.04260e-01 -1.15740e-01
       H  3.28076e+00 -3.29484e-01  7.14613e-01
       H  3.44155e+00 -1.66644e+00 -1.00479e-01
       H  8.14400e-02 -1.36290e-01  8.53000e-03
7
# CELL(abcABC):   13.38377    13.38377    13.38377    90.00000    90.00000    90.00000  Step:           9  Bead:       8 positions{angstrom}  cell{angstrom}
       O  5.54810e-01 -9.55480e-01 -1.98800e-01
       O  2.93677e+00 -8.42827e-01 -3.04108e-02
       H  1.69021e-01 -1.34462e+00 -9.96861e-01
       H  1.74588e+00 -9.04260e-01 -1.15740e-01
       H  3.28086e+00 -3.29579e-01  7.14616e-01
       H  3.44147e+00 -1.66645e+00 -1.00406e-01
       H  8.14400e-02 -1.36290e-01  8.53000e-03
7
# CELL(abcABC):   13.38377    13.38377    13.38377    90.00000    90.00000    90.00000  Step:          10  Bead:       8 positions{angstrom}  cell{angstrom}
       O  5.54810e-01 -9.55480e-01 -1.98800e-01
       O  2.93694e+00 -8.42565e-01 -3.04756e-02
       H  1.69111e-01 -1.34453e+00 -9.96921e-01
       H  1.74588e+00 -9.04260e-01 -1.15740e-01
       H  3.28099e+00 -3.29695e-01  7.14629e-01
       H  3.44137e+00 -1.66647e+00 -1.00312e-01
       H  8.14400e-02 -1.36290e-01  8.53000e-03
