7
# CELL(abcABC):   13.38377    13.38377    13.38377    90.00000    90.00000    90.00000  Step:           0  Bead:       4 positions{angstrom}  cell{angstrom}
       O  5.54810e-01 -9.55480e-01 -1.98800e-01
       O  2.92930e+00 -8.12750e-01  2.23900e-02
       H  1.68750e-01 -1.34489e+00 -9.96690e-01
       H  1.74588e+00 -9.04260e-01 -1.15740e-01
       H  3.25333e+00 -8.64570e-01  9.33680e-01
       H  3.49847e+00 -1.35580e+00 -5.41950e-01
       H  8.14400e-02 -1.36290e-01  8.53000e-03
7
# CELL(abcABC):   13.38377    13.38377    13.38377    90.00000    90.00000    90.00000  Step:           1  Bead:       4 positions{angstrom}  cell{angstrom}
       O  5.54810e-01 -9.55480e-01 -1.98800e-01
       O  2.92931e+00 -8.12735e-01  2.23956e-02
       H  1.68751e-01 -1.34489e+00 -9.96690e-01
       H  1.74588e+00 -9.04260e-01 -1.15740e-01
       H  3.25333e+00 -8.64576e-01  9.33675e-01
       H  3.49847e+00 -1.35580e+00 -5.41945e-01
       H  8.14400e-02 -1.36290e-01  8.53000e-03
7
# CELL(abcABC):   13.38377    13.38377    13.38377    90.00000    90.00000    90.00000  Step:           2  Bead:       4 positions{angstrom}  cell{angstrom}
       O  5.54810e-01 -9.55480e-01 -1.98800e-01
       O  2.92932e+00 -8.12712e-01  2.24040e-02
       H  1.68751e-01 -1.34488e+00 -9.96691e-01
       H  1.74588e+00 -9.04260e-01 -1.15740e-01
       H  3.25334e+00 -8.64584e-01  9.33666e-01
       H  3.49847e+00 -1.35581e+00 -5.41937e-01
       H  8.14400e-02 -1.36290e-01  8.53000e-03
7
# CELL(abcABC):   13.38377    13.38377    13.38377    90.00000    90.00000    90.00000  Step:           3  Bead:       4 positions{angstrom}  cell{angstrom}
       O  5.54810e-01 -9.55480e-01 -1.98800e-01
       O  2.92934e+00 -8.12681e-01  2.24151e-02
       H  1.68752e-01 -1.34488e+00 -9.96691e-01
       H  1.74588e+00 -9.04260e-01 -1.15740e-01
       H  3.25334e+00 -8.64596e-01  9.33656e-01
       H  3.49846e+00 -1.35582e+00 -5.41927e-01
       H  8.14400e-02 -1.36290e-01  8.53000e-03
7
# CELL(abcABC):   13.38377    13.38377    13.38377    90.00000    90.00000    90.00000  Step:           4  Bead:       4 positions{angstrom}  cell{angstrom}
       O  5.54810e-01 -9.55480e-01 -1.98800e-01
       O  2.92936e+00 -8.12642e-01  2.24287e-02
       H  1.68754e-01 -1.34487e+00 -9.96692e-01
       H  1.74588e+00 -9.04260e-01 -1.15740e-01
       H  3.25335e+00 -8.64611e-01  9.33643e-01
       H  3.49846e+00 -1.35583e+00 -5.41914e-01
       H  8.14400e-02 -1.36290e-01  8.53000e-03
7
# CELL(abcABC):   13.38377    13.38377    13.38377    90.00000    90.00000    90.00000  Step:           5  Bead:       4 positions{angstrom}  cell{angstrom}
       O  5.54810e-01 -9.55480e-01 -1.98800e-01
       O  2.92939e+00 -8.12595e-01  2.24446e-02
       H  1.68756e-01 -1.34486e+00 -9.96693e-01
       H  1.74588e+00 -9.04260e-01 -1.15740e-01
       H  3.25336e+00 -8.64629e-01  9.33627e-01
       H  3.49846e+00 -1.35584e+00 -5.41899e-01
       H  8.14400e-02 -1.36290e-01  8.53000e-03
7
# CELL(abcABC):   13.38377    13.38377    13.38377    90.00000    90.00000    90.00000  Step:           6  Bead:       4 positions{angstrom}  cell{angstrom}
       O  5.54810e-01 -9.55480e-01 -1.98800e-01
       O  2.92943e+00 -8.12533e-01  2.24648e-02
       H  1.68758e-01 -1.34485e+00 -9.96695e-01
       H  1.74588e+00 -9.04260e-01 -1.15740e-01
       H  3.25338e+00 -8.64653e-01  9.33607e-01
       H  3.49845e+00 -1.35586e+00 -5.41878e-01
       H  8.14400e-02 -1.36290e-01  8.53000e-03
7
# CELL(abcABC):   13.38377    13.38377    13.38377    90.00000    90.00000    90.00000  Step:           7  Bead:       4 positions{angstrom}  cell{angstrom}
       O  5.54810e-01 -9.55480e-01 -1.98800e-01
       O  2.92947e+00 -8.12452e-01  2.24900e-02
       H  1.68761e-01 -1.34483e+00 -9.96697e-01
       H  1.74588e+00 -9.04260e-01 -1.15740e-01
       H  3.25339e+00 -8.64686e-01  9.33582e-01
       H  3.49844e+00 -1.35588e+00 -5.41850e-01
       H  8.14400e-02 -1.36290e-01  8.53000e-03
7
# CELL(abcABC):   13.38377    13.38377    13.38377    90.00000    90.00000    90.00000  Step:           8  Bead:       4 positions{angstrom}  cell{angstrom}
       O  5.54810e-01 -9.55480e-01 -1.98800e-01
       O  2.92953e+00 -8.12344e-01  2.25206e-02
       H  1.68764e-01 -1.34481e+00 -9.96700e-01
       H  1.74588e+00 -9.04260e-01 -1.15740e-01
       H  3.25342e+00 -8.64733e-01  9.33552e-01
       H  3.49843e+00 -1.35590e+00 -5.41816e-01
       H  8.14400e-02 -1.36290e-01  8.53000e-03
7
# CELL(abcABC):   13.38377    13.38377    13.38377    90.00000    90.00000    90.00000  Step:           9  Bead:       4 positions{angstrom}  cell{angstrom}
       O  5.54810e-01 -9.55480e-01 -1.98800e-01
       O  2.92961e+00 -8.12204e-01  2.25575e-02
       H  1.68769e-01 -1.34478e+00 -9.96704e-01
       H  1.74588e+00 -9.04260e-01 -1.15740e-01
       H  3.25345e+00 -8.64809e-01  9.33517e-01
       H  3.49842e+00 -1.35592e+00 -5.41778e-01
       H  8.14400e-02 -1.36290e-01  8.53000e-03
7
# CELL(abcABC):   13.38377    13.38377    13.38377    90.00000    90.00000    90.00000  Step:          10  Bead:       4 positions{angstrom}  cell{angstrom}
       O  5.54810e-01 -9.55480e-01 -1.98800e-01
       O  2.92971e+00 -8.12025e-01  2.26015e-02
       H  1.68775e-01 -1.34474e+00 -9.96710e-01
       H  1.74588e+00 -9.04260e-01 -1.15740e-01
       H  3.25349e+00 -8.64942e-01  9.33483e-01
       H  3.49841e+00 -1.35592e+00 -5.41749e-01
       H  8.14400e-02 -1.36290e-01  8.53000e-03
