7
# CELL(abcABC):   13.38377    13.38377    13.38377    90.00000    90.00000    90.00000  Step:           0  Bead:      12 positions{angstrom}  cell{angstrom}
       O  5.54810e-01 -9.55480e-01 -1.98800e-01
       O  2.93908e+00 -9.01550e-01 -5.08900e-02
       H  1.68750e-01 -1.34489e+00 -9.96690e-01
       H  1.74588e+00 -9.04260e-01 -1.15740e-01
       H  3.34611e+00 -6.09300e-02  2.05650e-01
       H  3.37182e+00 -1.61833e+00  4.35200e-01
       H  8.14400e-02 -1.36290e-01  8.53000e-03
7
# CELL(abcABC):   13.38377    13.38377    13.38377    90.00000    90.00000    90.00000  Step:           1  Bead:      12 positions{angstrom}  cell{angstrom}
       O  5.54810e-01 -9.55480e-01 -1.98800e-01
       O  2.93909e+00 -9.01521e-01 -5.09004e-02
       H  1.68763e-01 -1.34489e+00 -9.96698e-01
       H  1.74588e+00 -9.04260e-01 -1.15740e-01
       H  3.34612e+00 -6.09405e-02  2.05651e-01
       H  3.37181e+00 -1.61833e+00  4.35205e-01
       H  8.14400e-02 -1.36290e-01  8.53000e-03
7
# CELL(abcABC):   13.38377    13.38377    13.38377    90.00000    90.00000    90.00000  Step:           2  Bead:      12 positions{angstrom}  cell{angstrom}
       O  5.54810e-01 -9.55480e-01 -1.98800e-01
       O  2.93910e+00 -9.01479e-01 -5.09161e-02
       H  1.68784e-01 -1.34488e+00 -9.96709e-01
       H  1.74588e+00 -9.04260e-01 -1.15740e-01
       H  3.34614e+00 -6.09561e-02  2.05653e-01
       H  3.37179e+00 -1.61834e+00  4.35212e-01
       H  8.14400e-02 -1.36290e-01  8.53000e-03
7
# CELL(abcABC):   13.38377    13.38377    13.38377    90.00000    90.00000    90.00000  Step:           3  Bead:      12 positions{angstrom}  cell{angstrom}
       O  5.54810e-01 -9.55480e-01 -1.98800e-01
       O  2.93911e+00 -9.01422e-01 -5.09370e-02
       H  1.68811e-01 -1.34488e+00 -9.96724e-01
       H  1.74588e+00 -9.04260e-01 -1.15740e-01
       H  3.34617e+00 -6.09766e-02  2.05656e-01
       H  3.37176e+00 -1.61834e+00  4.35223e-01
       H  8.14400e-02 -1.36290e-01  8.53000e-03
7
# CELL(abcABC):   13.38377    13.38377    13.38377    90.00000    90.00000    90.00000  Step:           4  Bead:      12 positions{angstrom}  cell{angstrom}
       O  5.54810e-01 -9.55480e-01 -1.98800e-01
       O  2.93913e+00 -9.01352e-01 -5.09632e-02
       H  1.68845e-01 -1.34487e+00 -9.96743e-01
       H  1.74588e+00 -9.04260e-01 -1.15740e-01
       H  3.34621e+00 -6.10017e-02  2.05658e-01
       H  3.37173e+00 -1.61835e+00  4.35236e-01
       H  8.14400e-02 -1.36290e-01  8.53000e-03
7
# CELL(abcABC):   13.38377    13.38377    13.38377    90.00000    90.00000    90.00000  Step:           5  Bead:      12 positions{angstrom}  cell{angstrom}
       O  5.54810e-01 -9.55480e-01 -1.98800e-01
       O  2.93915e+00 -9.01269e-01 -5.09950e-02
       H  1.68886e-01 -1.34486e+00 -9.96767e-01
       H  1.74588e+00 -9.04260e-01 -1.15740e-01
       H  3.34625e+00 -6.10305e-02  2.05659e-01
       H  3.37169e+00 -1.61836e+00  4.35254e-01
       H  8.14400e-02 -1.36290e-01  8.53000e-03
7
# CELL(abcABC):   13.38377    13.38377    13.38377    90.00000    90.00000    90.00000  Step:           6  Bead:      12 positions{angstrom}  cell{angstrom}
       O  5.54810e-01 -9.55480e-01 -1.98800e-01
       O  2.93918e+00 -9.01163e-01 -5.10370e-02
       H  1.68941e-01 -1.34484e+00 -9.96798e-01
       H  1.74588e+00 -9.04260e-01 -1.15740e-01
       H  3.34631e+00 -6.10653e-02  2.05651e-01
       H  3.37163e+00 -1.61836e+00  4.35285e-01
       H  8.14400e-02 -1.36290e-01  8.53000e-03
7
# CELL(abcABC):   13.38377    13.38377    13.38377    90.00000    90.00000    90.00000  Step:           7  Bead:      12 positions{angstrom}  cell{angstrom}
       O  5.54810e-01 -9.55480e-01 -1.98800e-01
       O  2.93922e+00 -9.01029e-01 -5.10922e-02
       H  1.69014e-01 -1.34483e+00 -9.96839e-01
       H  1.74588e+00 -9.04260e-01 -1.15740e-01
       H  3.34640e+00 -6.11037e-02  2.05622e-01
       H  3.37155e+00 -1.61836e+00  4.35344e-01
       H  8.14400e-02 -1.36290e-01  8.53000e-03
7
# CELL(abcABC):   13.38377    13.38377    13.38377    90.00000    90.00000    90.00000  Step:           8  Bead:      12 positions{angstrom}  cell{angstrom}
       O  5.54810e-01 -9.55480e-01 -1.98800e-01
       O  2.93927e+00 -9.00868e-01 -5.11646e-02
       H  1.69110e-01 -1.34480e+00 -9.96894e-01
       H  1.74588e+00 -9.04260e-01 -1.15740e-01
       H  3.34652e+00 -6.11379e-02  2.05532e-01
       H  3.37144e+00 -1.61834e+00  4.35465e-01
       H  8.14400e-02 -1.36290e-01  8.53000e-03
7
# CELL(abcABC):   13.38377    13.38377    13.38377    90.00000    90.00000    90.00000  Step:           9  Bead:      12 positions{angstrom}  cell{angstrom}
       O  5.54810e-01 -9.55480e-01 -1.98800e-01
       O  2.93934e+00 -9.00682e-01 -5.12590e-02
       H  1.69236e-01 -1.34477e+00 -9.96966e-01
       H  1.74588e+00 -9.04260e-01 -1.15740e-01
       H  3.34669e+00 -6.11491e-02  2.05303e-01
       H  3.37128e+00 -1.61826e+00  4.35724e-01
       H  8.14400e-02 -1.36290e-01  8.53000e-03
7
# CELL(abcABC):   13.38377    13.38377    13.38377    90.00000    90.00000    90.00000  Step:          10  Bead:      12 positions{angstrom}  cell{angstrom}
       O  5.54810e-01 -9.55480e-01 -1.98800e-01
       O  2.93942e+00 -9.00490e-01 -5.13797e-02
       H  1.69398e-01 -1.34473e+00 -9.97058e-01
       H  1.74588e+00 -9.04260e-01 -1.15740e-01
       H  3.34695e+00 -6.11018e-02  2.04786e-01
       H  3.37104e+00 -1.61808e+00  4.36254e-01
       H  8.14400e-02 -1.36290e-01  8.53000e-03
