7
# CELL(abcABC):   13.38377    13.38377    13.38377    90.00000    90.00000    90.00000  Step:           0  Bead:       7 positions{angstrom}  cell{angstrom}
       O  5.54810e-01 -9.55480e-01 -1.98800e-01
       O  2.93479e+00 -8.32580e-01 -1.93400e-02
       H  1.68750e-01 -1.34489e+00 -9.96690e-01
       H  1.74588e+00 -9.04260e-01 -1.15740e-01
       H  3.26920e+00 -4.46410e-01  8.03570e-01
       H  3.45845e+00 -1.61927e+00 -2.29600e-01
       H  8.14400e-02 -1.36290e-01  8.53000e-03
7
# CELL(abcABC):   13.38377    13.38377    13.38377    90.00000    90.00000    90.00000  Step:           1  Bead:       7 positions{angstrom}  cell{angstrom}
       O  5.54810e-01 -9.55480e-01 -1.98800e-01
       O  2.93480e+00 -8.32556e-01 -1.93398e-02
       H  1.68756e-01 -1.34488e+00 -9.96693e-01
       H  1.74588e+00 -9.04260e-01 -1.15740e-01
       H  3.26921e+00 -4.46421e-01  8.03567e-01
       H  3.45844e+00 -1.61927e+00 -2.29593e-01
       H  8.14400e-02 -1.36290e-01  8.53000e-03
7
# CELL(abcABC):   13.38377    13.38377    13.38377    90.00000    90.00000    90.00000  Step:           2  Bead:       7 positions{angstrom}  cell{angstrom}
       O  5.54810e-01 -9.55480e-01 -1.98800e-01
       O  2.93483e+00 -8.32519e-01 -1.93396e-02
       H  1.68764e-01 -1.34487e+00 -9.96699e-01
       H  1.74588e+00 -9.04260e-01 -1.15740e-01
       H  3.26922e+00 -4.46438e-01  8.03562e-01
       H  3.45844e+00 -1.61928e+00 -2.29582e-01
       H  8.14400e-02 -1.36290e-01  8.53000e-03
7
# CELL(abcABC):   13.38377    13.38377    13.38377    90.00000    90.00000    90.00000  Step:           3  Bead:       7 positions{angstrom}  cell{angstrom}
       O  5.54810e-01 -9.55480e-01 -1.98800e-01
       O  2.93486e+00 -8.32470e-01 -1.93396e-02
       H  1.68775e-01 -1.34486e+00 -9.96705e-01
       H  1.74588e+00 -9.04260e-01 -1.15740e-01
       H  3.26924e+00 -4.46461e-01  8.03557e-01
       H  3.45842e+00 -1.61928e+00 -2.29567e-01
       H  8.14400e-02 -1.36290e-01  8.53000e-03
7
# CELL(abcABC):   13.38377    13.38377    13.38377    90.00000    90.00000    90.00000  Step:           4  Bead:       7 positions{angstrom}  cell{angstrom}
       O  5.54810e-01 -9.55480e-01 -1.98800e-01
       O  2.93489e+00 -8.32408e-01 -1.93402e-02
       H  1.68789e-01 -1.34484e+00 -9.96714e-01
       H  1.74588e+00 -9.04260e-01 -1.15740e-01
       H  3.26926e+00 -4.46490e-01  8.03550e-01
       H  3.45841e+00 -1.61929e+00 -2.29548e-01
       H  8.14400e-02 -1.36290e-01  8.53000e-03
7
# CELL(abcABC):   13.38377    13.38377    13.38377    90.00000    90.00000    90.00000  Step:           5  Bead:       7 positions{angstrom}  cell{angstrom}
       O  5.54810e-01 -9.55480e-01 -1.98800e-01
       O  2.93494e+00 -8.32335e-01 -1.93416e-02
       H  1.68806e-01 -1.34482e+00 -9.96725e-01
       H  1.74588e+00 -9.04260e-01 -1.15740e-01
       H  3.26928e+00 -4.46524e-01  8.03542e-01
       H  3.45839e+00 -1.61930e+00 -2.29524e-01
       H  8.14400e-02 -1.36290e-01  8.53000e-03
7
# CELL(abcABC):   13.38377    13.38377    13.38377    90.00000    90.00000    90.00000  Step:           6  Bead:       7 positions{angstrom}  cell{angstrom}
       O  5.54810e-01 -9.55480e-01 -1.98800e-01
       O  2.93500e+00 -8.32238e-01 -1.93449e-02
       H  1.68828e-01 -1.34479e+00 -9.96739e-01
       H  1.74588e+00 -9.04260e-01 -1.15740e-01
       H  3.26932e+00 -4.46569e-01  8.03533e-01
       H  3.45836e+00 -1.61931e+00 -2.29493e-01
       H  8.14400e-02 -1.36290e-01  8.53000e-03
7
# CELL(abcABC):   13.38377    13.38377    13.38377    90.00000    90.00000    90.00000  Step:           7  Bead:       7 positions{angstrom}  cell{angstrom}
       O  5.54810e-01 -9.55480e-01 -1.98800e-01
       O  2.93508e+00 -8.32111e-01 -1.93515e-02
       H  1.68858e-01 -1.34475e+00 -9.96759e-01
       H  1.74588e+00 -9.04260e-01 -1.15740e-01
       H  3.26937e+00 -4.46627e-01  8.03522e-01
       H  3.45833e+00 -1.61933e+00 -2.29452e-01
       H  8.14400e-02 -1.36290e-01  8.53000e-03
7
# CELL(abcABC):   13.38377    13.38377    13.38377    90.00000    90.00000    90.00000  Step:           8  Bead:       7 positions{angstrom}  cell{angstrom}
       O  5.54810e-01 -9.55480e-01 -1.98800e-01
       O  2.93518e+00 -8.31948e-01 -1.93641e-02
       H  1.68897e-01 -1.34470e+00 -9.96785e-01
       H  1.74588e+00 -9.04260e-01 -1.15740e-01
       H  3.26943e+00 -4.46702e-01  8.03511e-01
       H  3.45828e+00 -1.61935e+00 -2.29396e-01
       H  8.14400e-02 -1.36290e-01  8.53000e-03
7
# CELL(abcABC):   13.38377    13.38377    13.38377    90.00000    90.00000    90.00000  Step:           9  Bead:       7 positions{angstrom}  cell{angstrom}
       O  5.54810e-01 -9.55480e-01 -1.98800e-01
       O  2.93531e+00 -8.31740e-01 -1.93870e-02
       H  1.68949e-01 -1.34463e+00 -9.96820e-01
       H  1.74588e+00 -9.04260e-01 -1.15740e-01
       H  3.26951e+00 -4.46797e-01  8.03502e-01
       H  3.45822e+00 -1.61937e+00 -2.29322e-01
       H  8.14400e-02 -1.36290e-01  8.53000e-03
7
# CELL(abcABC):   13.38377    13.38377    13.38377    90.00000    90.00000    90.00000  Step:          10  Bead:       7 positions{angstrom}  cell{angstrom}
       O  5.54810e-01 -9.55480e-01 -1.98800e-01
       O  2.93548e+00 -8.31482e-01 -1.94258e-02
       H  1.69014e-01 -1.34455e+00 -9.96866e-01
       H  1.74588e+00 -9.04260e-01 -1.15740e-01
       H  3.26963e+00 -4.46915e-01  8.03499e-01
       H  3.45814e+00 -1.61939e+00 -2.29226e-01
       H  8.14400e-02 -1.36290e-01  8.53000e-03
