6
# CELL(abcABC):  200.00000   200.00000   200.00000    90.00000    90.00000    90.00000  Step:           0  Bead:       0 x_centroid{atomic_unit}  cell{atomic_unit}
       H  4.22804e+00  2.80566e+00  2.37244e+00
       C  1.21909e+00  1.49235e+00  1.25108e+00
       H  2.47286e+00  3.05367e-01  1.31282e-01
       H -2.59662e-02  2.54839e+00 -1.66087e-03
       H  9.15228e-02  3.10289e-01  2.50251e+00
       H  1.10136e+01  4.11792e+00  3.50059e+00
6
# CELL(abcABC):  200.00000   200.00000   200.00000    90.00000    90.00000    90.00000  Step:           1  Bead:       0 x_centroid{atomic_unit}  cell{atomic_unit}
       H  3.48435e+00  2.64215e+00  2.22744e+00
       C  1.70126e+00  1.49784e+00  1.27677e+00
       H  2.46675e+00  1.87213e-01  2.10543e-02
       H  1.10780e-01  2.78523e+00  1.27374e-02
       H  2.22091e-01  3.49549e-01  2.71758e+00
       H  1.10140e+01  4.11799e+00  3.50065e+00
6
# CELL(abcABC):  200.00000   200.00000   200.00000    90.00000    90.00000    90.00000  Step:           2  Bead:       0 x_centroid{atomic_unit}  cell{atomic_unit}
       H  3.38389e+00  2.61794e+00  2.20639e+00
       C  1.75020e+00  1.50565e+00  1.28556e+00
       H  2.46839e+00  1.68619e-01  3.88562e-03
       H  1.36414e-01  2.80991e+00  2.06786e-02
       H  2.46298e-01  3.59847e-01  2.73906e+00
       H  1.10140e+01  4.11800e+00  3.50066e+00
6
# CELL(abcABC):  200.00000   200.00000   200.00000    90.00000    90.00000    90.00000  Step:           3  Bead:       0 x_centroid{atomic_unit}  cell{atomic_unit}
       H  3.26014e+00  2.58723e+00  2.18115e+00
       C  1.71207e+00  1.52646e+00  1.30281e+00
       H  2.48023e+00  1.35835e-01 -2.54139e-02
       H  2.13719e-01  2.81068e+00  6.36719e-02
       H  3.18961e-01  4.01742e-01  2.73334e+00
       H  1.10141e+01  4.11802e+00  3.50067e+00
6
# CELL(abcABC):  200.00000   200.00000   200.00000    90.00000    90.00000    90.00000  Step:           4  Bead:       0 x_centroid{atomic_unit}  cell{atomic_unit}
       H  3.09123e+00  2.55109e+00  2.15417e+00
       C  1.52833e+00  1.53630e+00  1.29551e+00
       H  2.49166e+00  1.06191e-01 -4.81597e-02
       H  3.91523e-01  2.75978e+00  1.81828e-01
       H  4.82255e-01  5.08558e-01  2.67219e+00
       H  1.10142e+01  4.11805e+00  3.50070e+00
6
# CELL(abcABC):  200.00000   200.00000   200.00000    90.00000    90.00000    90.00000  Step:           5  Bead:       0 x_centroid{atomic_unit}  cell{atomic_unit}
       H  3.10197e+00  2.55656e+00  2.15851e+00
       C  1.59131e+00  1.51398e+00  1.27748e+00
       H  2.47724e+00  1.22638e-01 -3.28220e-02
       H  3.60201e-01  2.77852e+00  1.60658e-01
       H  4.54288e-01  4.90229e-01  2.69171e+00
       H  1.10142e+01  4.11805e+00  3.50070e+00
6
# CELL(abcABC):  200.00000   200.00000   200.00000    90.00000    90.00000    90.00000  Step:           6  Bead:       0 x_centroid{atomic_unit}  cell{atomic_unit}
       H  3.09556e+00  2.55923e+00  2.16148e+00
       C  1.58833e+00  1.50078e+00  1.26238e+00
       H  2.46837e+00  1.30385e-01 -2.43351e-02
       H  3.69720e-01  2.77382e+00  1.69646e-01
       H  4.62989e-01  4.97690e-01  2.68635e+00
       H  1.10142e+01  4.11806e+00  3.50070e+00
6
# CELL(abcABC):  200.00000   200.00000   200.00000    90.00000    90.00000    90.00000  Step:           7  Bead:       0 x_centroid{atomic_unit}  cell{atomic_unit}
       H  3.08148e+00  2.56124e+00  2.16392e+00
       C  1.58655e+00  1.49008e+00  1.25091e+00
       H  2.45945e+00  1.33832e-01 -1.93754e-02
       H  3.82150e-01  2.76956e+00  1.80183e-01
       H  4.75297e-01  5.07193e-01  2.67988e+00
       H  1.10143e+01  4.11807e+00  3.50071e+00
6
# CELL(abcABC):  200.00000   200.00000   200.00000    90.00000    90.00000    90.00000  Step:           8  Bead:       0 x_centroid{atomic_unit}  cell{atomic_unit}
       H  3.08339e+00  2.56357e+00  2.16605e+00
       C  1.58696e+00  1.49026e+00  1.25126e+00
       H  2.45809e+00  1.32124e-01 -2.03670e-02
       H  3.81364e-01  2.76866e+00  1.80313e-01
       H  4.75109e-01  5.07278e-01  2.67826e+00
       H  1.10143e+01  4.11808e+00  3.50072e+00
6
# CELL(abcABC):  200.00000   200.00000   200.00000    90.00000    90.00000    90.00000  Step:           9  Bead:       0 x_centroid{atomic_unit}  cell{atomic_unit}
       H  3.08395e+00  2.57275e+00  2.17460e+00
       C  1.59290e+00  1.49123e+00  1.25163e+00
       H  2.45070e+00  1.23520e-01 -2.53006e-02
       H  3.80665e-01  2.76563e+00  1.82456e-01
       H  4.76585e-01  5.08738e-01  2.67211e+00
       H  1.10144e+01  4.11811e+00  3.50074e+00
6
# CELL(abcABC):  200.00000   200.00000   200.00000    90.00000    90.00000    90.00000  Step:          10  Bead:       0 x_centroid{atomic_unit}  cell{atomic_unit}
       H  3.08187e+00  2.57565e+00  2.17733e+00
       C  1.59639e+00  1.49172e+00  1.25094e+00
       H  2.44747e+00  1.20429e-01 -2.69317e-02
       H  3.81355e-01  2.76477e+00  1.83651e-01
       H  4.77641e-01  5.09287e-01  2.67048e+00
       H  1.10145e+01  4.11812e+00  3.50076e+00
6
# CELL(abcABC):  200.00000   200.00000   200.00000    90.00000    90.00000    90.00000  Step:          11  Bead:       0 x_centroid{atomic_unit}  cell{atomic_unit}
       H  3.08088e+00  2.57590e+00  2.17754e+00
       C  1.59720e+00  1.49194e+00  1.25064e+00
       H  2.44677e+00  1.20074e-01 -2.70346e-02
       H  3.81858e-01  2.76471e+00  1.83861e-01
       H  4.78000e-01  5.09221e-01  2.67046e+00
       H  1.10145e+01  4.11813e+00  3.50076e+00
6
# CELL(abcABC):  200.00000   200.00000   200.00000    90.00000    90.00000    90.00000  Step:          12  Bead:       0 x_centroid{atomic_unit}  cell{atomic_unit}
       H  3.08070e+00  2.57589e+00  2.17747e+00
       C  1.59724e+00  1.49204e+00  1.25064e+00
       H  2.44657e+00  1.20156e-01 -2.69206e-02
       H  3.82052e-01  2.76473e+00  1.83757e-01
       H  4.78105e-01  5.09021e-01  2.67052e+00
       H  1.10145e+01  4.11814e+00  3.50077e+00
6
# CELL(abcABC):  200.00000   200.00000   200.00000    90.00000    90.00000    90.00000  Step:          13  Bead:       0 x_centroid{atomic_unit}  cell{atomic_unit}
       H  3.08058e+00  2.57596e+00  2.17736e+00
       C  1.59718e+00  1.49227e+00  1.25079e+00
       H  2.44606e+00  1.20347e-01 -2.66479e-02
       H  3.82428e-01  2.76477e+00  1.83385e-01
       H  4.78333e-01  5.08470e-01  2.67056e+00
       H  1.10146e+01  4.11816e+00  3.50079e+00
6
# CELL(abcABC):  200.00000   200.00000   200.00000    90.00000    90.00000    90.00000  Step:          14  Bead:       0 x_centroid{atomic_unit}  cell{atomic_unit}
       H  3.08066e+00  2.57612e+00  2.17734e+00
       C  1.59704e+00  1.49241e+00  1.25099e+00
       H  2.44564e+00  1.20452e-01 -2.64648e-02
       H  3.82663e-01  2.76481e+00  1.83027e-01
       H  4.78508e-01  5.08006e-01  2.67053e+00
       H  1.10147e+01  4.11818e+00  3.50081e+00
6
# CELL(abcABC):  200.00000   200.00000   200.00000    90.00000    90.00000    90.00000  Step:          15  Bead:       0 x_centroid{atomic_unit}  cell{atomic_unit}
       H  3.08076e+00  2.57624e+00  2.17738e+00
       C  1.59693e+00  1.49243e+00  1.25112e+00
       H  2.44547e+00  1.20446e-01 -2.64264e-02
       H  3.82726e-01  2.76485e+00  1.82853e-01
       H  4.78579e-01  5.07812e-01  2.67048e+00
       H  1.10147e+01  4.11819e+00  3.50082e+00
6
# CELL(abcABC):  200.00000   200.00000   200.00000    90.00000    90.00000    90.00000  Step:          16  Bead:       0 x_centroid{atomic_unit}  cell{atomic_unit}
       H  3.08077e+00  2.57629e+00  2.17741e+00
       C  1.59689e+00  1.49240e+00  1.25113e+00
       H  2.44546e+00  1.20409e-01 -2.64515e-02
       H  3.82723e-01  2.76488e+00  1.82827e-01
       H  4.78590e-01  5.07793e-01  2.67049e+00
       H  1.10148e+01  4.11820e+00  3.50083e+00
