1
# CELL(abcABC):  100.00000   100.00000   100.00000    90.00000    90.00000    90.00000  Step:          17  Bead:       0 x_centroid{atomic_unit}  cell{atomic_unit}
       H -5.58224e-01  1.04173e+00  1.93590e-10
