1
# CELL(abcABC):  188.97261   188.97261   188.97261    90.00000    90.00000    90.00000  Step:           0  Bead:       0 momenta{atomic_unit}  cell{atomic_unit}
       H -3.13616e+00  4.17550e-01 -2.18480e-01
1
# CELL(abcABC):  188.97261   188.97261   188.97261    90.00000    90.00000    90.00000  Step:           1  Bead:       0 momenta{atomic_unit}  cell{atomic_unit}
       H -1.87440e+00  2.77723e-01  5.97443e-01
1
# CELL(abcABC):  188.97261   188.97261   188.97261    90.00000    90.00000    90.00000  Step:           2  Bead:       0 momenta{atomic_unit}  cell{atomic_unit}
       H -3.25093e-01  1.15173e+00 -1.03543e+00
1
# CELL(abcABC):  188.97261   188.97261   188.97261    90.00000    90.00000    90.00000  Step:           3  Bead:       0 momenta{atomic_unit}  cell{atomic_unit}
       H -3.73578e-01  1.22040e+00 -1.15429e+00
1
# CELL(abcABC):  188.97261   188.97261   188.97261    90.00000    90.00000    90.00000  Step:           4  Bead:       0 momenta{atomic_unit}  cell{atomic_unit}
       H -5.58345e-01  1.04725e+00 -1.54146e+00
1
# CELL(abcABC):  188.97261   188.97261   188.97261    90.00000    90.00000    90.00000  Step:           5  Bead:       0 momenta{atomic_unit}  cell{atomic_unit}
       H -2.54796e+00  1.82435e+00 -1.96578e+00
1
# CELL(abcABC):  188.97261   188.97261   188.97261    90.00000    90.00000    90.00000  Step:           6  Bead:       0 momenta{atomic_unit}  cell{atomic_unit}
       H -2.68936e+00  3.17933e+00 -2.02153e+00
1
# CELL(abcABC):  188.97261   188.97261   188.97261    90.00000    90.00000    90.00000  Step:           7  Bead:       0 momenta{atomic_unit}  cell{atomic_unit}
       H  3.27089e-01  3.45642e+00 -1.20805e+00
1
# CELL(abcABC):  188.97261   188.97261   188.97261    90.00000    90.00000    90.00000  Step:           8  Bead:       0 momenta{atomic_unit}  cell{atomic_unit}
       H  1.50751e+00  4.27241e+00 -1.44037e+00
1
# CELL(abcABC):  188.97261   188.97261   188.97261    90.00000    90.00000    90.00000  Step:           9  Bead:       0 momenta{atomic_unit}  cell{atomic_unit}
       H  1.89971e+00  4.00783e+00 -4.86128e-01
