6
# CELL(abcABC):  130.18034   170.29206   240.21758    90.00000    90.00000    90.00000  cell{atomic_unit}  Traj: positions{angstrom} Step:          12  Bead:       0 
       H  2.23738e+00  1.48469e+00  1.25544e+00
       C  6.45117e-01  7.89716e-01  6.62042e-01
       H  1.30858e+00  1.61593e-01  6.94713e-02
       H -1.37407e-02  1.34855e+00 -8.78892e-04
       H  4.84318e-02  1.64198e-01  1.32427e+00
       H  5.82817e+00  2.17911e+00  1.85243e+00
