12
Energy (kcal/mol): -145232.068813
C 0.743731804167 0.212058486667 -1.17836349917
C 1.39551024417 0.184787276667 0.0710713608333
C 0.651778414167 -0.0272710033333 1.24943488083
C -0.743731805833 -0.212058463333 1.17836350083
C -1.39551021583 -0.184787483333 -0.0710713791667
C -0.651778445833 0.0272711866667 -1.24943485917
H 1.32249454417 0.377079746667 -2.09535116917
H 2.48147881417 0.328586246667 0.126378180833
H 1.15898417417 -0.0484927933333 2.22172942083
H -1.32249455583 -0.377079683333 2.09535117083
H -2.48147871583 -0.328586953333 -0.126378249167
H -1.15898425583 0.0484934366667 -2.22172935917