3
Lattice="18.644500914709276 0.0 0.0 1.1416464183449307e-15 18.644500914709276 0.0 1.1416464183449307e-15 1.1416464183449307e-15 18.644500914709276" Properties=species:S:1:pos:R:3 step=2 pbc="T T T"
O        0.00567574      -0.01905721      -0.00000000
H        0.76622744       0.53668624       0.00000000
H       -0.75190262       0.54072916      -0.00000000
