48
# CELL(abcABC):     12.42    12.42    12.42  90.0 90.0 90.0 Step:          25  Bead:       0 positions{angstrom}  cell{angstrom}
O       3.872004510000000     -4.707724090000000      5.510320190000000
H       4.390891550000000     -5.364676000000000      6.035861020000000
H       3.285568480000000     -4.264329910000000      6.156825540000000
O      -3.490378140000000      1.775809650000000      4.299540520000000
H      -3.370791440000000      0.801610170000000      4.357486250000000
H      -3.529558660000000      2.058740850000000      5.247298240000000
O       4.553202630000000      2.918706420000000      5.349826340000000
H       3.615207670000000      3.260333540000000      5.525129800000000
H       4.459019180000000      2.601508380000000      4.430126670000000
O      -2.525688170000000     -0.141569350000000     -3.469945430000000
H      -2.066320900000000      0.417865370000000     -2.855435130000000
H      -1.862082120000000     -0.818961260000000     -3.919454570000000
O      -3.749537710000000      4.692767620000000      5.592643740000000
H      -4.680768970000000      4.876838210000000      5.833326340000000
H      -3.941659210000000      4.628834720000000      4.597336770000000
O       5.658530240000000     -0.078542110000000      2.318970680000000
H       6.362266540000000     -0.564129230000000      2.858640190000000
H       6.193048950000000      0.723502340000000      2.010826590000000
O       4.012381080000000     -5.587481020000000     -0.364838060000000
H       3.202430250000000     -5.501931670000000      0.349912350000000
H       3.847507240000000     -4.865025040000000     -0.958872910000000
O      -2.684959890000000     -3.121220590000000     -1.234802480000000
H      -3.063842770000000     -2.375047450000000     -1.775050280000000
H      -2.158241510000000     -2.581656690000000     -0.650412980000000
O       5.480233670000000     -3.213615420000000      3.060315130000000
H       4.645308020000000     -3.235066650000000      3.533505200000000
H       5.148169040000000     -2.990402700000000      2.091331960000000
O       1.948979970000000      3.846197610000000      5.791124340000000
H       1.478863360000000      2.974749800000000      5.658155440000000
H       2.077614780000000      3.913783790000000      6.789942260000000
O       4.046026230000000     -3.854662180000000     -3.037669660000000
H       3.160630940000000     -3.739388940000000     -3.514670850000000
H       4.368641380000000     -2.949191330000000     -2.828740120000000
O       1.955963850000000     -1.843134050000000      1.053409580000000
H       1.508492950000000     -2.409044500000000      1.722060920000000
H       1.539746520000000     -2.070982460000000      0.095598460000000
O       0.797153120000000     -5.696810720000000     -4.968268870000000
H       1.577143910000000     -6.302733420000000     -4.846479890000000
H       0.509361030000000     -5.787932870000000     -5.890666960000000
O       4.865700720000000      3.735418800000000     -3.226412300000000
H       4.530114650000000      2.820106980000000     -3.252092600000000
H       5.361336230000000      3.935394760000000     -2.390887020000000
O       2.971650360000000     -1.637001510000000      5.153319840000000
H       3.770622730000000     -1.963772060000000      5.609282490000000
H       3.244072680000000     -0.776986060000000      4.652006150000000
O      -0.100847910000000      1.878079650000000      5.755411150000000
H       0.152631790000000      0.992803570000000      6.133158680000000
H      -0.061326970000000      1.699766400000000      4.757431510000000
