3
# CELL(abcABC):   35.23300    35.23300    35.23300    90.00000    90.00000    90.00000  Step:          25  Bead:       0 positions{atomic_unit}  cell{atomic_unit}
       O  1.07256e-02 -3.60129e-02 -4.41379e-19
       H  1.44796e+00  1.01419e+00  1.74292e-19
       H -1.42089e+00  1.02183e+00 -1.52451e-21
