7
# CELL(abcABC):   25.29166    25.29166    25.29166    90.00000    90.00000    90.00000  Step:           0  Bead:       0 f_centroid{atomic_unit}  cell{atomic_unit}
       O  1.81782e-03  2.94126e-03 -2.50671e-03
       O -9.85165e-04 -3.13301e-03 -2.76220e-03
       H  1.96107e-03  2.46574e-03  5.79977e-03
       H -1.56524e-04  3.14017e-05  1.02516e-03
       H -2.23501e-03  5.02979e-03 -3.90609e-03
       H -3.66372e-03 -2.09913e-03  5.06836e-03
       H  3.26160e-03 -5.23500e-03 -2.71833e-03
7
# CELL(abcABC):   25.29166    25.29166    25.29166    90.00000    90.00000    90.00000  Step:           1  Bead:       0 f_centroid{atomic_unit}  cell{atomic_unit}
       O  7.08337e-03 -4.90473e-04  1.45813e-03
       O -7.19396e-03  5.13627e-04 -8.23604e-04
       H -4.11322e-04  4.21622e-05 -7.00528e-04
       H -9.24288e-05  1.79000e-05  6.14943e-04
       H  3.29653e-04 -6.36363e-04  7.54696e-05
       H  6.11597e-04 -7.27582e-05 -5.40857e-04
       H -3.28093e-04  6.27564e-04 -8.21885e-05
7
# CELL(abcABC):   25.29166    25.29166    25.29166    90.00000    90.00000    90.00000  Step:           2  Bead:       0 f_centroid{atomic_unit}  cell{atomic_unit}
       O  4.22006e-03 -2.45272e-04  7.13956e-04
       O -4.24214e-03  2.45232e-04 -6.33682e-04
       H  1.61830e-04 -1.81883e-04 -3.66147e-04
       H -3.33003e-05  5.37739e-06  2.37208e-04
       H -2.04174e-04 -4.65393e-04  2.24334e-04
       H -3.24519e-05  1.64218e-04 -4.13449e-04
       H  1.32790e-04  4.77478e-04  2.37209e-04
7
# CELL(abcABC):   25.29166    25.29166    25.29166    90.00000    90.00000    90.00000  Step:           3  Bead:       0 f_centroid{atomic_unit}  cell{atomic_unit}
       O -3.72566e-05  1.97733e-04 -8.71367e-05
       O  5.65223e-05 -2.06005e-04 -7.07814e-05
       H  8.47947e-04 -5.39504e-04 -1.16327e-04
       H  5.57336e-05 -1.34605e-05 -3.27650e-04
       H -9.50274e-04 -1.71281e-04  3.72206e-04
       H -7.64345e-04  5.27132e-04 -4.01775e-04
       H  7.91928e-04  2.04447e-04  6.28980e-04
7
# CELL(abcABC):   25.29166    25.29166    25.29166    90.00000    90.00000    90.00000  Step:           4  Bead:       0 f_centroid{atomic_unit}  cell{atomic_unit}
       O -9.97318e-05  1.23228e-04 -1.20147e-04
       O  1.28932e-04 -1.37115e-04 -8.26034e-05
       H  8.06038e-04 -4.82407e-04 -7.23858e-05
       H  5.29724e-05 -1.23549e-05 -3.08664e-04
       H -8.90132e-04 -1.81137e-04  3.44555e-04
       H -7.37055e-04  4.74054e-04 -3.46252e-04
       H  7.40228e-04  2.14571e-04  5.84399e-04
7
# CELL(abcABC):   25.29166    25.29166    25.29166    90.00000    90.00000    90.00000  Step:           5  Bead:       0 f_centroid{atomic_unit}  cell{atomic_unit}
       O -1.49103e-04 -2.24571e-04  2.45360e-04
       O  6.47503e-05  2.53597e-04  2.47269e-04
       H  4.09599e-05  8.54172e-05 -3.16717e-05
       H  9.91633e-06 -2.41300e-06 -4.80938e-05
       H -2.05127e-04  4.32152e-06 -2.26272e-04
       H -3.42197e-05 -8.88761e-05 -2.90441e-05
       H  2.72567e-04 -2.81915e-05 -1.57056e-04
7
# CELL(abcABC):   25.29166    25.29166    25.29166    90.00000    90.00000    90.00000  Step:           6  Bead:       0 f_centroid{atomic_unit}  cell{atomic_unit}
       O -4.81208e-05 -3.12748e-04  1.62947e-04
       O -3.37366e-06  3.17799e-04  1.50132e-04
       H  3.92404e-05  1.14903e-04  2.44654e-05
       H  3.15765e-06  3.26850e-07 -1.49043e-05
       H -1.58019e-04 -4.56140e-05 -1.97689e-04
       H -4.53085e-05 -1.10234e-04  1.69365e-05
       H  2.10865e-04  3.84460e-05 -1.43119e-04
7
# CELL(abcABC):   25.29166    25.29166    25.29166    90.00000    90.00000    90.00000  Step:           7  Bead:       0 f_centroid{atomic_unit}  cell{atomic_unit}
       O  3.46483e-04 -5.06397e-04 -9.58210e-05
       O -2.89630e-04  4.33964e-04 -1.68487e-04
       H -5.08749e-06  1.70111e-04  1.60640e-04
       H -2.34891e-05  6.43468e-06  1.48128e-04
       H  1.45533e-05 -1.76350e-04 -9.36168e-05
       H -2.74852e-05 -1.49623e-04  1.37034e-04
       H -1.50479e-05  2.20690e-04 -8.67104e-05
7
# CELL(abcABC):   25.29166    25.29166    25.29166    90.00000    90.00000    90.00000  Step:           8  Bead:       0 f_centroid{atomic_unit}  cell{atomic_unit}
       O  4.07454e-04 -4.14485e-04 -2.08129e-04
       O -3.05207e-04  3.37566e-04 -2.87793e-04
       H -4.01855e-05  1.24338e-04  1.59262e-04
       H -4.27463e-05  6.97611e-06  2.49726e-04
       H  7.32044e-05 -1.81399e-04 -2.11159e-05
       H  1.87299e-06 -1.02843e-04  1.45599e-04
       H -9.64249e-05  2.27749e-04 -3.71003e-05
7
# CELL(abcABC):   25.29166    25.29166    25.29166    90.00000    90.00000    90.00000  Step:           9  Bead:       0 f_centroid{atomic_unit}  cell{atomic_unit}
       O  1.94034e-04 -1.57098e-04 -1.43839e-04
       O -1.27939e-04  1.18337e-04 -1.74995e-04
       H -4.61228e-05  1.95271e-05  5.02325e-05
       H -4.18666e-05  7.18785e-06  2.36844e-04
       H  2.58652e-05 -8.81840e-05 -7.19780e-06
       H  3.42183e-05 -9.37206e-06  4.87987e-05
       H -3.85143e-05  1.07879e-04 -1.14881e-05
7
# CELL(abcABC):   25.29166    25.29166    25.29166    90.00000    90.00000    90.00000  Step:          10  Bead:       0 f_centroid{atomic_unit}  cell{atomic_unit}
       O  2.35346e-05 -1.04862e-05 -5.71276e-05
       O  1.43530e-07  7.17790e-06 -5.38904e-05
       H -3.23539e-05 -3.32761e-05 -2.02704e-05
       H -3.01668e-05  4.06004e-06  1.76949e-04
       H -2.60911e-05 -2.24460e-05 -2.02306e-05
       H  3.70363e-05  3.42624e-05 -1.55367e-05
       H  2.88992e-05  2.26379e-05 -1.26533e-05
7
# CELL(abcABC):   25.29166    25.29166    25.29166    90.00000    90.00000    90.00000  Step:          11  Bead:       0 f_centroid{atomic_unit}  cell{atomic_unit}
       O -4.18225e-05  3.93243e-05 -1.17694e-05
       O  4.65306e-05 -3.02236e-05  4.73221e-07
       H -1.96124e-05 -4.50456e-05 -3.77511e-05
       H -2.35772e-05  3.28697e-06  1.29242e-04
       H -4.00007e-05  2.69438e-06 -2.83819e-05
       H  2.81673e-05  4.35193e-05 -3.02478e-05
       H  5.11449e-05 -9.55822e-06 -1.78886e-05
7
# CELL(abcABC):   25.29166    25.29166    25.29166    90.00000    90.00000    90.00000  Step:          12  Bead:       0 f_centroid{atomic_unit}  cell{atomic_unit}
       O -7.84809e-05  6.34884e-05  2.56179e-05
       O  6.47418e-05 -4.69370e-05  4.37780e-05
       H -1.49356e-06 -4.46292e-05 -3.89278e-05
       H -1.10305e-05  2.05063e-06  6.00920e-05
       H -3.51051e-05  1.24913e-05 -3.35135e-05
       H  1.05160e-05  4.20499e-05 -3.39938e-05
       H  5.14206e-05 -2.40590e-05 -2.32831e-05
7
# CELL(abcABC):   25.29166    25.29166    25.29166    90.00000    90.00000    90.00000  Step:          13  Bead:       0 f_centroid{atomic_unit}  cell{atomic_unit}
       O -5.84279e-05  4.88143e-05  3.13861e-05
       O  4.19604e-05 -3.91523e-05  4.69768e-05
       H  1.59901e-05 -3.10166e-05 -1.38655e-05
       H -2.48690e-06  8.66862e-08  8.11866e-06
       H -1.04222e-05  5.28786e-06 -3.04269e-05
       H -1.05217e-05  2.73744e-05 -1.73543e-05
       H  2.49713e-05 -1.24729e-05 -2.48704e-05
7
# CELL(abcABC):   25.29166    25.29166    25.29166    90.00000    90.00000    90.00000  Step:          14  Bead:       0 f_centroid{atomic_unit}  cell{atomic_unit}
       O -1.67844e-05  2.00203e-05  2.06370e-05
       O  8.11582e-06 -1.33369e-05  2.11116e-05
       H  1.90212e-05 -1.67589e-05  5.27791e-06
       H -6.67910e-08  4.57590e-07 -6.57110e-06
       H  1.45704e-05 -1.32601e-05 -2.04025e-05
       H -1.94248e-05  1.51402e-05  2.83649e-06
       H -3.29550e-06  8.76383e-06 -2.44327e-05
7
# CELL(abcABC):   25.29166    25.29166    25.29166    90.00000    90.00000    90.00000  Step:          15  Bead:       0 f_centroid{atomic_unit}  cell{atomic_unit}
       O  5.78524e-06  2.29363e-06  6.51568e-06
       O -9.14326e-06 -3.38929e-06  7.65539e-06
       H  1.68470e-05 -1.10646e-05  1.47296e-05
       H  1.42109e-08  4.14957e-07 -1.29603e-06
       H  2.18279e-05 -2.07478e-05 -1.72406e-05
       H -2.10051e-05  1.09964e-05  9.88791e-06
       H -1.55921e-05  2.29733e-05 -2.15110e-05
7
# CELL(abcABC):   25.29166    25.29166    25.29166    90.00000    90.00000    90.00000  Step:          16  Bead:       0 f_centroid{atomic_unit}  cell{atomic_unit}
       O  3.36570e-05 -1.76726e-05 -1.00272e-05
       O -2.83364e-05  9.18305e-06 -9.99734e-06
       H  1.40645e-05 -3.64651e-06  2.68955e-05
       H -2.17568e-06  6.92069e-07  4.77058e-06
       H  3.39497e-05 -3.15538e-05 -1.07903e-05
       H -1.92003e-05  5.72129e-06  1.83732e-05
       H -3.23240e-05  3.63201e-05 -1.98952e-05
7
# CELL(abcABC):   25.29166    25.29166    25.29166    90.00000    90.00000    90.00000  Step:          17  Bead:       0 f_centroid{atomic_unit}  cell{atomic_unit}
       O  7.16469e-05 -4.35179e-05 -2.74227e-05
       O -5.35124e-05  2.88395e-05 -3.91822e-05
       H  7.61418e-06  3.78009e-06  3.85867e-05
       H -4.76348e-06  5.32907e-07  2.00771e-05
       H  4.26482e-05 -4.51990e-05 -4.56026e-06
       H -1.80336e-05  1.03171e-06  3.02975e-05
       H -4.54719e-05  5.30150e-05 -1.75490e-05
7
# CELL(abcABC):   25.29166    25.29166    25.29166    90.00000    90.00000    90.00000  Step:          18  Bead:       0 f_centroid{atomic_unit}  cell{atomic_unit}
       O  1.35870e-04 -9.30555e-05 -6.38465e-05
       O -9.33909e-05  5.46137e-05 -7.96135e-05
       H -3.92077e-06  2.12708e-05  6.55049e-05
       H -7.68239e-06 -7.04858e-07  3.64381e-05
       H  5.65024e-05 -6.34572e-05  1.02688e-05
       H -1.14255e-05 -4.88569e-06  4.61611e-05
       H -7.53388e-05  8.63636e-05 -1.11967e-05
7
# CELL(abcABC):   25.29166    25.29166    25.29166    90.00000    90.00000    90.00000  Step:          19  Bead:       0 f_centroid{atomic_unit}  cell{atomic_unit}
       O  1.64489e-04 -1.10137e-04 -8.04960e-05
       O -1.11393e-04  7.11736e-05 -1.10360e-04
       H -1.73941e-05  2.86207e-05  7.77362e-05
       H -9.10489e-06 -1.74651e-06  4.60787e-05
       H  5.70950e-05 -7.63094e-05  2.23324e-05
       H -1.39408e-06 -2.93738e-06  5.57549e-05
       H -8.22666e-05  9.28750e-05 -1.02872e-05
7
# CELL(abcABC):   25.29166    25.29166    25.29166    90.00000    90.00000    90.00000  Step:          20  Bead:       0 f_centroid{atomic_unit}  cell{atomic_unit}
       O  1.52836e-04 -1.07539e-04 -7.64004e-05
       O -9.25070e-05  6.00835e-05 -1.05500e-04
       H -3.55968e-05  2.96197e-05  7.65255e-05
       H -5.26228e-06 -4.67111e-06  3.42396e-05
       H  2.86875e-05 -6.23899e-05  2.44967e-05
       H  1.56703e-05  6.97469e-06  5.11804e-05
       H -6.38934e-05  7.63634e-05 -8.54357e-06
7
# CELL(abcABC):   25.29166    25.29166    25.29166    90.00000    90.00000    90.00000  Step:          21  Bead:       0 f_centroid{atomic_unit}  cell{atomic_unit}
       O  7.54071e-05 -5.14376e-05 -3.48535e-05
       O -4.03702e-05  2.87287e-05 -6.21071e-05
       H -3.62377e-05  1.07065e-05  4.70905e-05
       H  6.76437e-07 -6.20588e-06  7.99503e-06
       H  8.28493e-07 -3.96525e-05  1.84357e-05
       H  2.08530e-05  1.91392e-05  3.28598e-05
       H -2.41769e-05  3.62917e-05 -1.09353e-05
7
# CELL(abcABC):   25.29166    25.29166    25.29166    90.00000    90.00000    90.00000  Step:          22  Bead:       0 f_centroid{atomic_unit}  cell{atomic_unit}
       O  3.61950e-06 -3.73319e-06  3.59108e-06
       O  2.73843e-06 -7.31148e-06 -8.53078e-06
       H -2.89987e-05 -6.99458e-06  1.91520e-05
       H  7.36406e-06 -5.92451e-06 -1.87228e-05
       H -2.05915e-05 -1.08898e-05  3.05107e-06
       H  2.41556e-05  2.82768e-05  1.33412e-05
       H  1.08670e-05  4.27605e-06 -1.24473e-05
7
# CELL(abcABC):   25.29166    25.29166    25.29166    90.00000    90.00000    90.00000  Step:          23  Bead:       0 f_centroid{atomic_unit}  cell{atomic_unit}
       O -1.37646e-05  7.80176e-06  1.32530e-05
       O  1.31507e-05 -1.13076e-05  3.75167e-07
       H -2.67207e-05 -1.28253e-05  1.15008e-05
       H  9.79981e-06 -4.29026e-06 -2.46615e-05
       H -2.26223e-05 -4.83027e-06 -4.54747e-08
       H  2.09781e-05  2.89887e-05  1.14653e-05
       H  1.65514e-05 -2.03073e-06 -1.01693e-05
7
# CELL(abcABC):   25.29166    25.29166    25.29166    90.00000    90.00000    90.00000  Step:          24  Bead:       0 f_centroid{atomic_unit}  cell{atomic_unit}
       O -4.88356e-05  2.91124e-05  2.23039e-05
       O  2.45265e-05 -2.73630e-05  2.42807e-05
       H -1.30100e-05 -2.64990e-05 -4.40536e-08
       H  1.41085e-05 -1.89999e-06 -3.50610e-05
       H -2.12466e-05  1.07860e-05 -1.64491e-05
       H  1.49299e-05  2.27303e-05  9.99876e-06
       H  2.99892e-05 -9.47011e-06 -5.36460e-06
7
# CELL(abcABC):   25.29166    25.29166    25.29166    90.00000    90.00000    90.00000  Step:          25  Bead:       0 f_centroid{atomic_unit}  cell{atomic_unit}
       O -5.98206e-05  3.75977e-05  2.64876e-05
       O  2.37122e-05 -2.86533e-05  2.75904e-05
       H -1.05231e-05 -3.43661e-05 -9.42748e-06
       H  1.78076e-05  6.35225e-07 -3.81377e-05
       H -1.88308e-05  1.72605e-05 -2.30244e-05
       H  1.18092e-05  1.61222e-05  1.64519e-05
       H  3.31582e-05 -9.76286e-06  6.19593e-07
7
# CELL(abcABC):   25.29166    25.29166    25.29166    90.00000    90.00000    90.00000  Step:          26  Bead:       0 f_centroid{atomic_unit}  cell{atomic_unit}
       O -9.05018e-05  3.47541e-05  2.89901e-06
       O  3.52429e-07 -8.20535e-06  3.00858e-05
       H -5.23244e-06 -6.75882e-05 -3.55868e-05
       H  2.62361e-05  1.58280e-05 -3.62903e-05
       H  9.98739e-06  3.49914e-05 -5.42428e-05
       H  1.72378e-05 -2.37563e-05  4.91866e-05
       H  4.47201e-05  1.31180e-05  4.24137e-05
7
# CELL(abcABC):   25.29166    25.29166    25.29166    90.00000    90.00000    90.00000  Step:          27  Bead:       0 f_centroid{atomic_unit}  cell{atomic_unit}
       O -6.21370e-05  2.83805e-05 -1.04052e-05
       O -2.83990e-05  6.70894e-06  1.42435e-05
       H -7.63691e-06 -7.22125e-05 -4.00860e-05
       H  1.94333e-05  2.08502e-05 -2.61537e-05
       H  2.03073e-05  2.90555e-05 -5.44247e-05
       H  1.44311e-05 -3.54774e-05  6.22634e-05
       H  4.08917e-05  2.63583e-05  5.50244e-05
7
# CELL(abcABC):   25.29166    25.29166    25.29166    90.00000    90.00000    90.00000  Step:          28  Bead:       0 f_centroid{atomic_unit}  cell{atomic_unit}
       O  1.44283e-05  4.17799e-07 -5.16067e-05
       O -7.42972e-05  3.84489e-05 -1.32658e-05
       H -1.17822e-05 -6.43240e-05 -2.36795e-05
       H -1.12408e-06  2.30088e-05  1.10987e-06
       H  4.31683e-05  8.28493e-06 -4.79815e-05
       H  1.16799e-05 -5.16295e-05  6.86185e-05
       H  1.72747e-05  4.71019e-05  6.57096e-05
7
# CELL(abcABC):   25.29166    25.29166    25.29166    90.00000    90.00000    90.00000  Step:          29  Bead:       0 f_centroid{atomic_unit}  cell{atomic_unit}
       O  5.47033e-05 -1.48418e-05 -6.57124e-05
       O -7.10145e-05  4.73690e-05 -1.53932e-05
       H -1.66580e-05 -4.78735e-05 -4.41673e-06
       H -1.81117e-05  1.83320e-05  1.00314e-05
       H  4.12300e-05 -8.80647e-06 -3.18977e-05
       H  7.81597e-06 -4.26212e-05  5.32481e-05
       H  3.38787e-06  4.72809e-05  5.51751e-05
7
# CELL(abcABC):   25.29166    25.29166    25.29166    90.00000    90.00000    90.00000  Step:          30  Bead:       0 f_centroid{atomic_unit}  cell{atomic_unit}
       O  8.52836e-05 -5.52518e-06 -6.52406e-05
       O -1.96550e-05  4.61426e-05  8.45120e-06
       H -2.68315e-05 -1.16913e-05  2.68429e-05
       H -5.36517e-05  6.51568e-06  7.35412e-06
       H  2.17184e-05 -2.64805e-05 -6.68905e-06
       H -1.08429e-06 -2.05176e-05  1.09580e-05
       H -5.26796e-06  1.04336e-05  1.67205e-05
7
# CELL(abcABC):   25.29166    25.29166    25.29166    90.00000    90.00000    90.00000  Step:          31  Bead:       0 f_centroid{atomic_unit}  cell{atomic_unit}
       O  6.13156e-05  7.48202e-06 -4.52189e-05
       O  1.22725e-05  3.40449e-05  2.72379e-05
       H -2.54133e-05 -6.60805e-06  2.41684e-05
       H -5.36232e-05  3.34950e-06 -8.64162e-06
       H  8.62457e-06 -2.51731e-05  1.11413e-06
       H -3.38360e-06 -5.62039e-06 -6.33946e-06
       H  2.06910e-06 -5.06901e-06  5.97851e-06
7
# CELL(abcABC):   25.29166    25.29166    25.29166    90.00000    90.00000    90.00000  Step:          32  Bead:       0 f_centroid{atomic_unit}  cell{atomic_unit}
       O  1.62302e-05  3.33173e-05 -6.83826e-06
       O  5.28317e-05  1.14468e-05  4.92818e-05
       H -2.01140e-05 -9.95186e-06  8.76952e-06
       H -4.57518e-05 -1.86873e-06 -2.51617e-05
       H -1.04109e-05 -1.58821e-05  3.03402e-06
       H -9.53690e-06  9.67617e-06 -2.18037e-05
       H  1.55524e-05 -2.82824e-05 -6.96332e-06
7
# CELL(abcABC):   25.29166    25.29166    25.29166    90.00000    90.00000    90.00000  Step:          33  Bead:       0 f_centroid{atomic_unit}  cell{atomic_unit}
       O -1.74708e-05  4.53511e-05  1.07335e-05
       O  7.69688e-05 -5.41007e-06  6.10115e-05
       H -1.38130e-05 -8.24372e-06  1.75788e-06
       H -3.79885e-05 -1.26761e-06 -3.34893e-05
       H -1.78346e-05 -4.54179e-06  2.82796e-07
       H -1.42947e-05  1.43743e-05 -2.77353e-05
       H  2.34976e-05 -3.95445e-05 -1.28750e-05
7
# CELL(abcABC):   25.29166    25.29166    25.29166    90.00000    90.00000    90.00000  Step:          34  Bead:       0 f_centroid{atomic_unit}  cell{atomic_unit}
       O -5.20529e-05  4.91468e-05  3.16049e-05
       O  7.70115e-05 -2.28056e-05  5.54380e-05
       H -6.14335e-06 -8.00497e-06 -1.04464e-05
       H -1.41313e-05  3.74882e-06 -3.90486e-05
       H -2.14200e-05  1.33141e-05 -4.67821e-06
       H -9.97602e-06  1.17282e-05 -2.01936e-05
       H  2.75904e-05 -4.54804e-05 -1.28637e-05
7
# CELL(abcABC):   25.29166    25.29166    25.29166    90.00000    90.00000    90.00000  Step:          35  Bead:       0 f_centroid{atomic_unit}  cell{atomic_unit}
       O -3.39682e-05  2.73118e-05  2.16886e-05
       O  3.99339e-05 -1.40162e-05  2.91791e-05
       H -1.24203e-06 -6.92495e-06 -1.02617e-05
       H -3.48024e-06  6.23999e-06 -2.39467e-05
       H -9.85949e-06  4.62137e-06  1.06866e-06
       H -5.06191e-06  7.01164e-06 -1.27471e-05
       H  1.59517e-05 -2.39439e-05 -5.65592e-06
7
# CELL(abcABC):   25.29166    25.29166    25.29166    90.00000    90.00000    90.00000  Step:          36  Bead:       0 f_centroid{atomic_unit}  cell{atomic_unit}
       O -1.73372e-06  3.95062e-07  5.19691e-06
       O -2.38742e-07 -3.70051e-06  6.48015e-07
       H -1.66835e-06 -3.20597e-06 -5.00506e-06
       H  2.22968e-06  9.44738e-06 -2.05915e-06
       H  3.36797e-07  1.63425e-06  1.09139e-06
       H -2.55795e-07 -8.04334e-07  8.59757e-07
       H  1.77778e-06 -1.56177e-06  5.81224e-07
7
# CELL(abcABC):   25.29166    25.29166    25.29166    90.00000    90.00000    90.00000  Step:          37  Bead:       0 f_centroid{atomic_unit}  cell{atomic_unit}
       O  2.11884e-06 -2.41442e-06 -2.14584e-07
       O -2.07478e-06  3.76588e-07 -2.64038e-06
       H -1.02176e-06 -1.80478e-07 -8.61178e-07
       H  1.85736e-06  7.33849e-06  6.87805e-07
       H -2.35900e-07 -2.69154e-06  5.03064e-07
       H -3.05533e-07 -1.89573e-06  7.91545e-07
       H -3.56692e-07  1.08855e-06  4.87432e-07
7
# CELL(abcABC):   25.29166    25.29166    25.29166    90.00000    90.00000    90.00000  Step:          38  Bead:       0 f_centroid{atomic_unit}  cell{atomic_unit}
       O  1.68541e-06 -2.97860e-06  1.15108e-07
       O -1.01892e-06  2.88480e-07 -2.22826e-06
       H -4.59011e-07 -1.89715e-06 -2.79954e-07
       H -1.49214e-07  7.22764e-06  9.67759e-07
       H  2.02789e-06 -2.98712e-06  4.19220e-07
       H  3.16902e-07  1.56319e-07  8.95284e-08
       H -1.29461e-06  1.35003e-07 -2.57216e-07
7
# CELL(abcABC):   25.29166    25.29166    25.29166    90.00000    90.00000    90.00000  Step:          39  Bead:       0 f_centroid{atomic_unit}  cell{atomic_unit}
       O  3.12639e-07 -1.52909e-06 -1.13261e-06
       O  1.75504e-06 -2.69722e-06 -1.00897e-07
       H  5.04485e-07  9.80549e-08  1.13687e-06
       H -5.84066e-07  6.63931e-06  2.11742e-07
       H -7.17648e-07 -1.60441e-06  1.58735e-06
       H -1.07008e-06 -1.21645e-06 -1.48646e-06
       H -1.65841e-06 -1.30740e-06 -2.00089e-06
7
# CELL(abcABC):   25.29166    25.29166    25.29166    90.00000    90.00000    90.00000  Step:          40  Bead:       0 f_centroid{atomic_unit}  cell{atomic_unit}
       O -4.39542e-06  2.39595e-06 -1.40545e-06
       O  5.51665e-06 -4.05578e-06  6.36220e-06
       H  2.45990e-06  2.91323e-07  4.56168e-06
       H -1.48930e-06  4.25047e-06 -1.06013e-06
       H -3.84404e-06  3.03118e-06 -1.53193e-06
       H  4.00746e-07 -2.52953e-07 -3.35518e-06
       H  1.49072e-06 -4.43947e-06 -2.75264e-06
7
# CELL(abcABC):   25.29166    25.29166    25.29166    90.00000    90.00000    90.00000  Step:          41  Bead:       0 f_centroid{atomic_unit}  cell{atomic_unit}
       O -2.78533e-06  4.57021e-06  4.84590e-07
       O  4.25473e-06 -2.77538e-06  3.09228e-06
       H  2.69154e-06  1.32729e-06  2.55085e-06
       H -8.55493e-07  6.23857e-07 -2.37037e-06
       H -2.58780e-06  1.72236e-06 -1.91704e-06
       H  7.03437e-07 -9.94760e-09 -1.44951e-06
       H  6.96332e-08 -6.37073e-06 -1.02460e-06
7
# CELL(abcABC):   25.29166    25.29166    25.29166    90.00000    90.00000    90.00000  Step:          42  Bead:       0 f_centroid{atomic_unit}  cell{atomic_unit}
       O -8.64020e-07  2.49685e-06  2.33911e-06
       O  8.21387e-07 -1.21645e-06 -7.03437e-07
       H  7.65965e-07  3.69482e-07  1.49356e-06
       H  7.21911e-07 -8.52651e-08 -1.80052e-06
       H -1.18092e-06 -2.57216e-07  8.99547e-07
       H  1.79909e-06 -4.26326e-09  6.11067e-07
       H -1.77778e-06 -1.93836e-06 -8.49809e-07
7
# CELL(abcABC):   25.29166    25.29166    25.29166    90.00000    90.00000    90.00000  Step:          43  Bead:       0 f_centroid{atomic_unit}  cell{atomic_unit}
       O  2.46132e-06 -2.24532e-07  1.06724e-06
       O -2.27374e-06  3.44187e-06 -3.22729e-06
       H  2.99849e-07 -1.34293e-06 -1.67830e-06
       H  6.08225e-07  4.91696e-07  7.13385e-07
       H  1.12266e-07 -1.91704e-06  1.12408e-06
       H  2.30216e-07 -2.17426e-07  1.33582e-06
       H -2.45421e-06  9.74865e-07  1.17382e-06
7
# CELL(abcABC):   25.29166    25.29166    25.29166    90.00000    90.00000    90.00000  Step:          44  Bead:       0 f_centroid{atomic_unit}  cell{atomic_unit}
       O  7.63123e-07 -9.77707e-07  1.04023e-06
       O -6.28120e-07  4.97380e-07 -8.86757e-07
       H  2.79954e-07 -1.16529e-06 -1.26192e-06
       H  1.64846e-07  1.96536e-06  2.03215e-07
       H -8.49809e-07  1.20792e-07 -6.05382e-07
       H  1.81757e-06 -1.27471e-06  1.20934e-06
       H -4.41958e-07  1.50919e-06 -5.52802e-07
7
# CELL(abcABC):   25.29166    25.29166    25.29166    90.00000    90.00000    90.00000  Step:          45  Bead:       0 f_centroid{atomic_unit}  cell{atomic_unit}
       O -1.10845e-07  8.89600e-07 -8.35598e-07
       O  7.14806e-07 -6.90648e-07  6.89226e-07
       H  7.13385e-07 -3.12639e-07  1.44951e-06
       H  4.12115e-08 -1.29319e-07 -1.16813e-06
       H -2.09042e-06 -5.57066e-07 -1.30456e-06
       H  6.28120e-07 -1.47793e-07 -6.53699e-08
       H -7.04858e-07 -3.04112e-07  1.44951e-07
7
# CELL(abcABC):   25.29166    25.29166    25.29166    90.00000    90.00000    90.00000  Step:          46  Bead:       0 f_centroid{atomic_unit}  cell{atomic_unit}
       O -2.18705e-06  1.53477e-07 -7.33280e-07
       O  8.05755e-07 -2.53237e-06  4.04583e-06
       H  1.56319e-08  3.78009e-07  3.21876e-06
       H  9.62075e-07 -3.75167e-07 -5.03064e-07
       H -3.22018e-06  1.43814e-06 -2.33200e-06
       H  2.65601e-06  8.93863e-07 -6.48015e-07
       H -1.41966e-06 -8.48388e-07 -5.45697e-07
7
# CELL(abcABC):   25.29166    25.29166    25.29166    90.00000    90.00000    90.00000  Step:          47  Bead:       0 f_centroid{atomic_unit}  cell{atomic_unit}
       O -3.12070e-06  1.48077e-06 -2.03357e-06
       O  3.39071e-06 -2.76117e-06  2.38600e-06
       H  2.57216e-07  1.31166e-06  2.34621e-06
       H -4.76064e-07  9.97602e-07 -1.34577e-06
       H -2.90896e-06  1.49782e-06 -2.77396e-06
       H  2.90044e-06  2.10321e-07 -1.22640e-06
       H -3.58114e-07 -2.36895e-06 -1.23777e-06
7
# CELL(abcABC):   25.29166    25.29166    25.29166    90.00000    90.00000    90.00000  Step:          48  Bead:       0 f_centroid{atomic_unit}  cell{atomic_unit}
       O -2.70290e-06  7.73070e-07 -1.16387e-06
       O  2.70148e-06 -2.65601e-06  3.70335e-06
       H  1.49640e-06  1.38982e-06  2.06342e-06
       H -1.25908e-06  9.47864e-07  1.22213e-07
       H -1.98241e-06  2.16431e-06 -3.45324e-06
       H  2.19700e-06  6.73595e-07 -2.21547e-06
       H -1.37277e-06 -1.04023e-06 -1.68399e-06
