#Bead    Energy (eV)
0     0.05113388898041316
1     0.05315468032355862
2     0.05788076548489761
3     0.06668110401421838
4     0.08130346544361368
5     0.10253287771705626
6     0.12654370455256153
7     0.1430434023270727
8     0.14499112687101906
9     0.13362758166350597
10     0.11486952483536592
11     0.0938044536225434
12     0.07618623057397172
13     0.06360637717503197
14     0.05580505037353811
15     0.05212372038791605
