#Bead    Energy (eV)
0     0.048010793705999144
1     0.05006230761537636
2     0.055167515402352374
3     0.06530035693631965
4     0.08283835118220956
5     0.10794612286167661
6     0.13311540055758112
7     0.14578290160402213
8     0.14080551258723087
9     0.12402205532312414
10     0.10070845223403804
11     0.07872570175415318
12     0.061990000932250065
13     0.05071974760920981
14     0.04395987380765516
15     0.04082131565137507
