#Bead    Energy (eV)
0     0.05104097515712119
1     0.05306951644368564
2     0.05782256256069674
3     0.06669383309098245
4     0.08146358784021217
5     0.10291615059174383
6     0.1270534587852278
7     0.14334274627411497
8     0.14474698761547658
9     0.13287887029520795
10     0.11361730053412121
11     0.09233877126651915
12     0.0747290768002318
13     0.0622286250911736
14     0.05450969761310025
15     0.05087332238233164
