#Bead    Energy (eV)
0     0.06537776555844366
1     0.06842840551476514
2     0.07563770918924644
3     0.08790095468383863
4     0.10538783775378793
5     0.12528362884254654
6     0.14068829284912457
7     0.1461764612687949
8     0.14016344893874955
9     0.12712439965785238
10     0.10983889792154287
11     0.09258127399307692
12     0.0785531932506661
13     0.06852373141042968
14     0.06231255846883983
15     0.05955519530225097
