#Bead    Energy (eV)
0     0.053551887997109415
1     0.055821523787737866
2     0.06104397476068316
3     0.070540369673141
4     0.08586896151139578
5     0.10731810114616054
6     0.13012540827844282
7     0.14435658014354713
8     0.1440744580029646
9     0.1317573290770667
10     0.11270517536494683
11     0.09214406697587658
12     0.07521632481201693
13     0.06317455833056673
14     0.0557056992021589
15     0.0521766654434155
