#Bead    Energy (eV)
0     0.05096590857496589
1     0.05296025606468151
2     0.05762923639623487
3     0.06633787559093109
4     0.08084381285521451
5     0.10198573435910428
6     0.12607642557685142
7     0.14284298456344546
8     0.1451019566831399
9     0.13390376560117467
10     0.11523346685962982
11     0.09413744671544252
12     0.07644109075721481
13     0.0637921276786535
14     0.05594442270948384
15     0.05224097116990205
