#Bead    Energy (eV)
0     0.05094187433573566
1     0.0529298251585715
2     0.05758385082110203
3     0.06626549962662247
4     0.08073133514217475
5     0.10183206447338992
6     0.125926637864579
7     0.14276948725526517
8     0.14514562154489985
9     0.13403132328658401
10     0.11542990653474229
11     0.09435240856147208
12     0.07664205640103602
13     0.0639729291756765
14     0.056108504280995376
15     0.052396357945602295
