#Bead    Energy (eV)
0     0.050919370072655595
1     0.05290320294685336
2     0.05754808218924119
3     0.06621437972546856
4     0.08065941548510698
5     0.10174199948043824
6     0.12584532755081587
7     0.14273224115687608
8     0.1451657473533179
9     0.1340864802905247
10     0.11550856746259959
11     0.09443177425200715
12     0.07671030737855557
13     0.06402971605434313
14     0.05615693406720792
15     0.05244064585222887
