192
# CELL(abcABC):   23.60263    23.60263    23.60263    90.00000    90.00000    90.00000  Step:       60000  Bead:       0 x_centroid{atomic_unit}  cell{atomic_unit}
       O -1.70553e+01  5.92439e+01 -2.58777e+01
       H -1.72946e+01  6.05075e+01 -2.46819e+01
       H -1.79331e+01  5.78434e+01 -2.51325e+01
       O  4.44538e+01  1.37079e+02 -4.57758e+01
       H  4.27185e+01  1.37302e+02 -4.57718e+01
       H  4.51914e+01  1.38711e+02 -4.62773e+01
       O  2.28414e+01 -1.03728e+01 -5.94149e+01
       H  2.45484e+01 -1.02256e+01 -6.03097e+01
       H  2.32097e+01 -1.00393e+01 -5.76952e+01
       O  5.05733e+01 -8.83195e+00 -8.63632e+01
       H  4.98192e+01 -7.38151e+00 -8.73152e+01
       H  5.18291e+01 -7.82631e+00 -8.53119e+01
       O  4.60792e+01  1.26156e+02  8.13707e+01
       H  4.68871e+01  1.25796e+02  7.98213e+01
       H  4.58853e+01  1.27952e+02  8.14146e+01
       O -2.96636e+01  1.78112e+01 -4.84378e+00
       H -2.98071e+01  1.61080e+01 -5.83483e+00
       H -2.80144e+01  1.85533e+01 -5.29301e+00
       O  1.18150e+01  1.19320e+01  2.25814e+01
       H  1.00840e+01  1.17012e+01  2.21828e+01
       H  1.23968e+01  1.09736e+01  2.11062e+01
       O -1.06241e+01 -1.48128e+01  6.56042e+01
       H -9.31084e+00 -1.54378e+01  6.45495e+01
       H -1.14878e+01 -1.37735e+01  6.44441e+01
       O  1.09651e+02 -8.82792e+01  8.51580e+01
       H  1.11370e+02 -8.79666e+01  8.45864e+01
       H  1.09587e+02 -8.95971e+01  8.63646e+01
       O -5.13874e+01 -8.91444e+01 -2.77204e+01
       H -5.24773e+01 -9.04251e+01 -2.83983e+01
       H -4.97102e+01 -8.97679e+01 -2.80472e+01
       O -1.19174e+02  4.23713e+01  1.65998e+01
       H -1.19110e+02  4.29145e+01  1.49124e+01
       H -1.18766e+02  4.05905e+01  1.63114e+01
       O -1.08612e+02  5.97432e+01  7.46968e+01
       H -1.10154e+02  5.91526e+01  7.54442e+01
       H -1.08648e+02  5.88201e+01  7.30907e+01
       O -1.86297e+01 -6.01730e+01 -1.80294e+01
       H -1.80411e+01 -6.16432e+01 -1.69485e+01
       H -1.92687e+01 -5.90906e+01 -1.67398e+01
       O  8.66711e+01 -6.26216e+01  6.44885e+00
       H  8.55575e+01 -6.15067e+01  7.37706e+00
       H  8.78188e+01 -6.16185e+01  5.59093e+00
       O -7.85503e+00  1.79862e+01  6.97642e+00
       H -6.75399e+00  1.73506e+01  8.15291e+00
       H -7.73131e+00  1.97365e+01  7.11099e+00
       O -7.50670e+01 -5.98691e+01 -4.35771e+01
       H -7.64382e+01 -5.86892e+01 -4.42212e+01
       H -7.48978e+01 -6.12805e+01 -4.48286e+01
       O  3.38777e+01 -7.43270e+01 -4.76623e+01
       H  3.55999e+01 -7.49743e+01 -4.76576e+01
       H  3.31219e+01 -7.51661e+01 -4.61992e+01
       O -1.37850e+01  1.14379e+02 -7.93107e+01
       H -1.48000e+01  1.13469e+02 -8.05341e+01
       H -1.50254e+01  1.14701e+02 -7.80671e+01
       O  8.31739e+01  1.13805e+01  8.68203e+00
       H  8.20380e+01  1.13931e+01  7.24000e+00
       H  8.24564e+01  1.01990e+01  9.98655e+00
       O  1.38302e+02  4.69989e+01 -1.80224e+01
       H  1.39584e+02  4.57899e+01 -1.81200e+01
       H  1.37497e+02  4.69138e+01 -1.64274e+01
       O -3.98650e+01  9.23829e+01 -4.09568e+01
       H -3.87307e+01  9.38969e+01 -4.06692e+01
       H -3.90788e+01  9.13045e+01 -4.22155e+01
       O  2.39239e+01  2.82903e+01  6.41354e+01
       H  2.37898e+01  2.74449e+01  6.25553e+01
       H  2.54991e+01  2.75887e+01  6.49007e+01
       O  1.19482e+01  6.36426e+01 -6.03838e+01
       H  1.17531e+01  6.22402e+01 -6.14554e+01
       H  1.31298e+01  6.47945e+01 -6.13235e+01
       O  1.22283e+02 -3.11425e+01  4.80349e+01
       H  1.21267e+02 -2.99846e+01  4.71333e+01
       H  1.21155e+02 -3.20866e+01  4.89381e+01
       O -6.52451e+01  4.94649e+01  6.51286e+01
       H -6.48096e+01  5.05019e+01  6.37054e+01
       H -6.45133e+01  5.02897e+01  6.65326e+01
       O  4.63401e+01 -4.55004e+01  1.17542e+01
       H  4.49554e+01 -4.46074e+01  1.08992e+01
       H  4.76483e+01 -4.52359e+01  1.05340e+01
       O -1.85581e+01  8.51321e+00  4.81566e+01
       H -1.74322e+01  7.04689e+00  4.80039e+01
       H -1.85045e+01  8.86322e+00  5.00126e+01
       O  4.35955e+01  2.98614e+01  2.44526e+01
       H  4.33336e+01  2.95907e+01  2.26203e+01
       H  4.27737e+01  2.83545e+01  2.51502e+01
       O  8.78028e+01  2.41374e+01 -2.19316e+01
       H  8.72465e+01  2.24679e+01 -2.22442e+01
       H  8.90033e+01  2.38377e+01 -2.06104e+01
       O -2.33209e+01 -9.47181e+01  2.97604e-01
       H -2.24933e+01 -9.57002e+01 -9.49892e-01
       H -2.28887e+01 -9.29283e+01  1.51091e-01
       O -5.53324e+01  3.76834e+01  7.27672e+01
       H -5.59372e+01  3.80459e+01  7.44733e+01
       H -5.64806e+01  3.66016e+01  7.18549e+01
       O -1.12774e+01 -4.57708e+01 -1.44299e+00
       H -1.19016e+01 -4.73776e+01 -1.17905e+00
       H -1.01256e+01 -4.54823e+01 -1.26970e-01
       O -6.94028e+01  7.34518e+01  6.27821e+00
       H -7.09392e+01  7.28381e+01  5.55485e+00
       H -6.93445e+01  7.52180e+01  5.85026e+00
       O  5.89877e+00  5.33042e+01 -1.56922e+01
       H  6.01734e+00  5.27499e+01 -1.39845e+01
       H  7.20475e+00  5.23814e+01 -1.65534e+01
       O -8.79833e+01 -7.35916e+01 -5.18629e+01
       H -8.82661e+01 -7.18383e+01 -5.20056e+01
       H -8.66986e+01 -7.40081e+01 -5.05516e+01
       O  6.28578e+01 -4.52392e+01 -2.93426e+01
       H  6.17131e+01 -4.50799e+01 -2.79254e+01
       H  6.23854e+01 -4.66655e+01 -3.04070e+01
       O  3.19118e+01  4.10080e+01  5.07089e+01
       H  3.23994e+01  3.91957e+01  5.09028e+01
       H  3.01288e+01  4.08603e+01  5.01880e+01
       O -1.65142e+01  6.46878e+01  8.12089e+01
       H -1.47811e+01  6.42735e+01  8.13579e+01
       H -1.66663e+01  6.60883e+01  8.00453e+01
       O -3.63508e+01  1.25140e+02  1.05902e+02
       H -3.47290e+01  1.25014e+02  1.06846e+02
       H -3.77161e+01  1.24354e+02  1.06895e+02
       O  2.50444e+01  1.93458e+01  3.00621e+01
       H  2.55001e+01  2.10384e+01  2.97569e+01
       H  2.48447e+01  1.93281e+01  3.19002e+01
       O  6.11073e+01  2.74563e+01 -1.94691e+01
       H  6.17863e+01  2.92243e+01 -1.90387e+01
       H  6.24383e+01  2.63929e+01 -2.02053e+01
       O  1.84089e+02 -6.65449e+01 -1.43957e+01
       H  1.82918e+02 -6.53907e+01 -1.52957e+01
       H  1.85409e+02 -6.53840e+01 -1.39926e+01
       O -3.97130e+01 -1.96850e+01 -8.94721e-01
       H -3.78579e+01 -2.00906e+01 -1.04157e+00
       H -4.03535e+01 -2.13856e+01 -2.46386e-01
       O -1.81479e+01 -1.11229e+01 -3.09236e+01
       H -1.91998e+01 -1.25464e+01 -3.13724e+01
       H -1.79029e+01 -1.11448e+01 -2.90763e+01
       O  3.93330e+01 -4.48333e+00  7.05312e+01
       H  4.00091e+01 -4.51077e+00  6.87741e+01
       H  3.94818e+01 -6.09678e+00  7.12513e+01
       O  2.39240e+01 -5.69260e+01  1.64843e+01
       H  2.33811e+01 -5.74982e+01  1.81713e+01
       H  2.57150e+01 -5.67812e+01  1.64841e+01
       O -2.43884e+01 -5.08725e+01 -5.95140e+01
       H -2.60487e+01 -5.15752e+01 -5.92882e+01
       H -2.43555e+01 -4.91158e+01 -5.92264e+01
       O -2.57604e-01  1.42177e+01  2.69535e+01
       H -3.88246e-01  1.59301e+01  2.72052e+01
       H -1.78537e+00  1.34750e+01  2.75549e+01
       O -4.43936e+01  5.55457e+01  3.80858e+01
       H -4.52123e+01  5.45152e+01  3.93127e+01
       H -4.55842e+01  5.56254e+01  3.66461e+01
       O -3.74450e+01  7.32165e+01  6.62890e+00
       H -3.64172e+01  7.27630e+01  8.09473e+00
       H -3.59867e+01  7.37579e+01  5.68645e+00
       O -7.58317e+01  1.66727e+01 -1.22714e+01
       H -7.69456e+01  1.57068e+01 -1.12054e+01
       H -7.46612e+01  1.54089e+01 -1.25712e+01
       O  1.69338e+01 -1.10027e+00  3.35705e+01
       H  1.69673e+01 -2.06853e+00  3.50395e+01
       H  1.56248e+01 -6.27543e-02  3.39474e+01
       O  2.54359e+01  1.97435e+01  2.09699e+02
       H  2.72985e+01  1.99217e+01  2.09126e+02
       H  2.46471e+01  1.90159e+01  2.08257e+02
       O -2.20782e+01 -1.90445e+01  7.07997e+01
       H -2.07878e+01 -1.77650e+01  7.09988e+01
       H -2.37151e+01 -1.82999e+01  7.11976e+01
       O -3.49032e+01 -2.19384e+01 -8.34889e+01
       H -3.42960e+01 -2.01702e+01 -8.36208e+01
       H -3.62749e+01 -2.18982e+01 -8.22107e+01
       O  1.13911e+01  3.63373e+01  1.09540e+02
       H  9.65614e+00  3.63499e+01  1.10234e+02
       H  1.14618e+01  3.78869e+01  1.08499e+02
       O -1.88500e+01 -6.97020e+01  3.36559e+01
       H -1.95930e+01 -6.91620e+01  3.20534e+01
       H -1.78601e+01 -7.10397e+01  3.30464e+01
       O -2.34726e+01  5.53523e+01  9.97845e+01
       H -2.48480e+01  5.63256e+01  9.90448e+01
       H -2.19450e+01  5.62723e+01  9.95342e+01
       O  6.89273e+01  6.10369e+01 -2.53037e+01
       H  6.80635e+01  6.25718e+01 -2.55135e+01
       H  6.97043e+01  6.10628e+01 -2.36947e+01
       O  5.27811e+01 -7.10458e+01  7.23031e+01
       H  5.30264e+01 -7.18306e+01  7.38793e+01
       H  5.08700e+01 -7.11357e+01  7.23351e+01
       O -3.95704e+00  3.24721e+01  1.54037e+01
       H -2.24215e+00  3.29039e+01  1.54440e+01
       H -4.40406e+00  3.17540e+01  1.70927e+01
       O  1.48153e+02  2.82586e+01 -1.00073e+01
       H  1.47054e+02  2.97783e+01 -1.02352e+01
       H  1.47382e+02  2.68799e+01 -1.09258e+01
       O -5.39179e+01  8.44158e+01 -5.56933e+01
       H -5.27392e+01  8.30199e+01 -5.58124e+01
       H -5.55465e+01  8.36280e+01 -5.60935e+01
       O -3.23672e+01 -2.63575e+01  1.51796e+01
       H -3.41244e+01 -2.68157e+01  1.53423e+01
       H -3.16138e+01 -2.74615e+01  1.63806e+01
