1
# CELL(abcABC):  188.97261   188.97261   188.97261    90.00000    90.00000    90.00000  Step:           0  Bead:       0 v_centroid{atomic_unit}  cell{atomic_unit}
       H -1.09479e-03  2.88759e-04 -3.72237e-04
1
# CELL(abcABC):  188.97261   188.97261   188.97261    90.00000    90.00000    90.00000  Step:           1  Bead:       0 v_centroid{atomic_unit}  cell{atomic_unit}
       H -1.03626e-03  2.92499e-04 -3.44165e-04
1
# CELL(abcABC):  188.97261   188.97261   188.97261    90.00000    90.00000    90.00000  Step:           2  Bead:       0 v_centroid{atomic_unit}  cell{atomic_unit}
       H -1.01406e-03  2.35256e-04 -3.84953e-04
1
# CELL(abcABC):  188.97261   188.97261   188.97261    90.00000    90.00000    90.00000  Step:           3  Bead:       0 v_centroid{atomic_unit}  cell{atomic_unit}
       H -9.95679e-04  2.00396e-04 -3.48552e-04
1
# CELL(abcABC):  188.97261   188.97261   188.97261    90.00000    90.00000    90.00000  Step:           4  Bead:       0 v_centroid{atomic_unit}  cell{atomic_unit}
       H -1.01713e-03  1.89202e-04 -3.92532e-04
1
# CELL(abcABC):  188.97261   188.97261   188.97261    90.00000    90.00000    90.00000  Step:           5  Bead:       0 v_centroid{atomic_unit}  cell{atomic_unit}
       H -1.01088e-03  1.20871e-04 -3.55855e-04
1
# CELL(abcABC):  188.97261   188.97261   188.97261    90.00000    90.00000    90.00000  Step:           6  Bead:       0 v_centroid{atomic_unit}  cell{atomic_unit}
       H -9.63636e-04  1.39962e-04 -3.50812e-04
1
# CELL(abcABC):  188.97261   188.97261   188.97261    90.00000    90.00000    90.00000  Step:           7  Bead:       0 v_centroid{atomic_unit}  cell{atomic_unit}
       H -9.86263e-04  1.78154e-04 -3.96043e-04
1
# CELL(abcABC):  188.97261   188.97261   188.97261    90.00000    90.00000    90.00000  Step:           8  Bead:       0 v_centroid{atomic_unit}  cell{atomic_unit}
       H -9.06166e-04  1.82533e-04 -3.85812e-04
1
# CELL(abcABC):  188.97261   188.97261   188.97261    90.00000    90.00000    90.00000  Step:           9  Bead:       0 v_centroid{atomic_unit}  cell{atomic_unit}
       H -9.16357e-04  2.30793e-04 -4.16871e-04
