1
# CELL(abcABC):  188.97261   188.97261   188.97261    90.00000    90.00000    90.00000  Step:           0  Bead:       0 forces{atomic_unit}  cell{atomic_unit}
       H  0.00000e+00  0.00000e+00  0.00000e+00
1
# CELL(abcABC):  188.97261   188.97261   188.97261    90.00000    90.00000    90.00000  Step:           1  Bead:       0 forces{atomic_unit}  cell{atomic_unit}
       H  8.72915e-04 -1.47897e-04 -5.26802e-05
1
# CELL(abcABC):  188.97261   188.97261   188.97261    90.00000    90.00000    90.00000  Step:           2  Bead:       0 forces{atomic_unit}  cell{atomic_unit}
       H  1.86173e-03 -3.60781e-04 -3.22247e-04
1
# CELL(abcABC):  188.97261   188.97261   188.97261    90.00000    90.00000    90.00000  Step:           3  Bead:       0 forces{atomic_unit}  cell{atomic_unit}
       H  2.59157e-03 -1.01394e-03 -9.60970e-04
1
# CELL(abcABC):  188.97261   188.97261   188.97261    90.00000    90.00000    90.00000  Step:           4  Bead:       0 forces{atomic_unit}  cell{atomic_unit}
       H  3.31754e-03 -2.06436e-03 -1.39217e-03
1
# CELL(abcABC):  188.97261   188.97261   188.97261    90.00000    90.00000    90.00000  Step:           5  Bead:       0 forces{atomic_unit}  cell{atomic_unit}
       H  3.56814e-03 -2.51086e-03 -1.54479e-03
1
# CELL(abcABC):  188.97261   188.97261   188.97261    90.00000    90.00000    90.00000  Step:           6  Bead:       0 forces{atomic_unit}  cell{atomic_unit}
       H  3.87813e-03 -2.99466e-03 -1.50756e-03
1
# CELL(abcABC):  188.97261   188.97261   188.97261    90.00000    90.00000    90.00000  Step:           7  Bead:       0 forces{atomic_unit}  cell{atomic_unit}
       H  3.64377e-03 -3.47980e-03 -1.79652e-03
1
# CELL(abcABC):  188.97261   188.97261   188.97261    90.00000    90.00000    90.00000  Step:           8  Bead:       0 forces{atomic_unit}  cell{atomic_unit}
       H  2.86966e-03 -3.98500e-03 -1.82322e-03
1
# CELL(abcABC):  188.97261   188.97261   188.97261    90.00000    90.00000    90.00000  Step:           9  Bead:       0 forces{atomic_unit}  cell{atomic_unit}
       H  2.22277e-03 -3.94283e-03 -1.24238e-03
