#Bead    Energy (eV)
0     -0.13615775758485366
1     -0.13596022856520623
2     -0.13556523773366455
3     -0.13497292712807243
4     -0.13418352880393097
5     -0.13319738747133422
6     -0.1320149904034348
7     -0.1306370043719294
8     -0.12906431929241854
9     -0.12729809818284332
10     -0.12533983295082152
11     -0.12319140543022081
12     -0.12085515298378698
13     -0.11833393787764937
14     -0.11563121951612754
15     -0.11275112850314774
16     -0.10969854137200448
17     -0.10647915470109237
18     -0.10309955721309175
19     -0.09956729834304316
20     -0.0958909516614263
21     -0.09208017145685796
22     -0.0881457407247401
23     -0.0840996087786886
24     -0.07995491670636554
25     -0.07572600893568839
26     -0.07142842926601252
27     -0.06707889985571241
28     -0.06269528184544743
29     -0.05829651653675241
30     -0.0539025463382438
31     -0.04953421503461935
32     -0.04521314732261861
33     -0.04096160798691327
34     -0.03680234154901866
35     -0.03275839370316515
36     -0.02885291634211809
37     -0.025108958459052456
38     -0.021549245673445325
39     -0.01819595155354917
40     -0.015070464279303622
41     -0.012193152492110162
42     -0.009583134397647594
43     -0.007258054312806803
44     -0.005233870868538172
45     -0.0035246609908934543
46     -0.0021424435805081194
47     -0.0010970264979616954
48     -0.000395880044786437
49     -4.403961736566623e-05
50     -4.403961736566623e-05
51     -0.00039588004478643686
52     -0.0010970264979616954
53     -0.0021424435805081194
54     -0.0035246609908934534
55     -0.005233870868538172
56     -0.007258054312806803
57     -0.00958313439764759
58     -0.012193152492110162
59     -0.015070464279303622
60     -0.01819595155354917
61     -0.021549245673445325
62     -0.025108958459052456
63     -0.02885291634211809
64     -0.03275839370316515
65     -0.03680234154901866
66     -0.04096160798691327
67     -0.04521314732261861
68     -0.04953421503461935
69     -0.0539025463382438
70     -0.05829651653675241
71     -0.06269528184544743
72     -0.06707889985571241
73     -0.07142842926601252
74     -0.07572600893568839
75     -0.07995491670636554
76     -0.0840996087786886
77     -0.0881457407247401
78     -0.09208017145685796
79     -0.0958909516614263
80     -0.09956729834304316
81     -0.10309955721309175
82     -0.10647915470109237
83     -0.10969854137200448
84     -0.11275112850314774
85     -0.11563121951612754
86     -0.11833393787764937
87     -0.12085515298378698
88     -0.12319140543022081
89     -0.12533983295082152
90     -0.12729809818284332
91     -0.12906431929241854
92     -0.1306370043719294
93     -0.1320149904034348
94     -0.13319738747133422
95     -0.13418352880393097
96     -0.13497292712807243
97     -0.13556523773366455
98     -0.13596022856520623
99     -0.13615775758485366
