384
# CELL(abcABC):   29.55607    29.55607    29.55607    90.00000    90.00000    90.00000  cell{}  Traj: positions Step:     1600000  Bead:       0 
       O  9.40056e+01 -3.71584e+01 -9.35466e+01
       H  9.52277e+01 -3.84918e+01 -9.40082e+01
       H  9.24261e+01 -3.80266e+01 -9.40523e+01
       O  3.49446e+01 -5.10563e+01 -6.27009e+01
       H  3.65774e+01 -5.07323e+01 -6.30609e+01
       H  3.46262e+01 -5.25820e+01 -6.18558e+01
       O  2.21214e+01 -1.65549e+02 -8.96077e+01
       H  2.36213e+01 -1.64511e+02 -8.94079e+01
       H  2.24747e+01 -1.66622e+02 -9.09281e+01
       O  6.57499e+01 -8.78933e+01 -2.49511e+01
       H  6.47754e+01 -8.64937e+01 -2.53578e+01
       H  6.71764e+01 -8.73087e+01 -2.39274e+01
       O  3.04920e+01 -1.43407e+02 -6.33781e+01
       H  2.96206e+01 -1.43766e+02 -6.15837e+01
       H  2.91628e+01 -1.42076e+02 -6.45417e+01
       O  4.05337e+01 -8.06087e+01 -9.23650e+01
       H  4.10195e+01 -7.91264e+01 -9.12668e+01
       H  4.02753e+01 -8.17615e+01 -9.09582e+01
       O  3.34999e+01 -9.32616e+01 -7.08490e+01
       H  3.33138e+01 -9.48346e+01 -6.99706e+01
       H  3.48770e+01 -9.24052e+01 -6.98656e+01
       O -3.08435e+00 -1.08180e+02 -5.41921e+01
       H -2.74794e+00 -1.07045e+02 -5.54466e+01
       H -2.18207e+00 -1.07578e+02 -5.27491e+01
       O  8.31327e+01 -7.80293e+01 -9.68323e+01
       H  8.32929e+01 -7.85915e+01 -9.86882e+01
       H  8.17209e+01 -7.90825e+01 -9.63208e+01
       O  6.56714e+01 -8.39551e+01 -4.61713e+01
       H  6.69329e+01 -8.29754e+01 -4.51131e+01
       H  6.68646e+01 -8.54483e+01 -4.65882e+01
       O  9.22969e+00 -1.13382e+02 -3.86544e+01
       H  1.00346e+01 -1.14472e+02 -4.00695e+01
       H  8.98173e+00 -1.11739e+02 -3.96707e+01
       O  9.53682e+01 -1.00222e+02 -2.68680e+01
       H  9.41715e+01 -1.01712e+02 -3.25817e+01
       H  9.58549e+01 -1.02151e+02 -2.65370e+01
       O -2.31262e+01 -4.25534e+01 -6.36684e+01
       H -2.13722e+01 -4.27804e+01 -6.28686e+01
       H -1.89109e+01 -4.16874e+01 -6.52943e+01
       O  7.87636e+01 -1.06133e+02 -1.46610e+01
       H  7.85618e+01 -1.04727e+02 -1.34586e+01
       H  7.71212e+01 -1.06775e+02 -1.50674e+01
       O  1.13585e+01 -1.30511e+01 -6.18117e+01
       H  1.12460e+01 -1.19793e+01 -6.03503e+01
       H  1.21122e+01 -1.45271e+01 -6.15151e+01
       O  1.05432e+02 -1.21671e+02 -9.63935e+00
       H  1.05895e+02 -1.20382e+02 -8.49231e+00
       H  1.06583e+02 -1.23058e+02 -9.33133e+00
       O -6.83974e+00 -5.94822e+01 -4.93857e+01
       H -6.98568e+00 -6.08726e+01 -5.06198e+01
       H -8.56062e+00 -5.89790e+01 -4.98321e+01
       O  5.12982e+01 -9.29915e+01 -3.35407e+01
       H  4.96448e+01 -9.29842e+01 -3.25992e+01
       H  5.22632e+01 -9.15937e+01 -3.24166e+01
       O  8.07766e+01 -5.59375e+01 -3.42180e+01
       H  7.95342e+01 -5.69524e+01 -3.49010e+01
       H  8.20395e+01 -5.68775e+01 -3.34446e+01
       O  3.38833e+01 -8.20603e+01 -4.99995e+01
       H  3.26511e+01 -8.32534e+01 -5.07665e+01
       H  3.52524e+01 -8.27162e+01 -4.89148e+01
       O  8.97331e+01 -5.97183e+01 -1.05518e+02
       H  8.82005e+01 -5.84604e+01 -1.06087e+02
       H  9.03897e+01 -5.87078e+01 -1.04268e+02
       O  2.05752e+00 -1.25905e+02 -2.26778e+01
       H  3.57313e+00 -1.26979e+02 -2.21080e+01
       H  9.72595e-01 -1.26048e+02 -2.12688e+01
       O  9.12164e+01 -7.72721e+01 -8.87596e+01
       H  9.21439e+01 -7.81818e+01 -9.02472e+01
       H  9.06024e+01 -7.54783e+01 -8.97190e+01
       O  1.09801e+02 -1.26172e+02 -1.70052e+01
       H  1.09127e+02 -1.24293e+02 -1.65986e+01
       H  1.10719e+02 -1.26040e+02 -1.85537e+01
       O  2.61968e+01 -6.77351e+01 -3.99357e+01
       H  2.47462e+01 -6.89478e+01 -4.09015e+01
       H  2.56513e+01 -6.60282e+01 -4.00691e+01
       O  5.78912e+01 -2.16122e+01 -3.67855e+01
       H  5.91211e+01 -2.03884e+01 -3.75728e+01
       H  5.61911e+01 -2.07353e+01 -3.74151e+01
       O  7.45296e+01 -5.32549e+01 -5.39908e+01
       H  7.30160e+01 -5.43603e+01 -5.31038e+01
       H  7.58257e+01 -5.27332e+01 -5.27987e+01
       O  5.84192e+01 -8.99042e+01 -1.08609e+01
       H  6.00272e+01 -9.07181e+01 -1.15771e+01
       H  5.90019e+01 -8.81549e+01 -1.04679e+01
       O  1.83912e+01 -4.28690e+01 -1.18568e+01
       H  1.83407e+01 -4.26461e+01 -9.79581e+00
       H  1.67313e+01 -4.25203e+01 -1.24029e+01
       O  3.20467e+01 -3.89596e+01 -3.98282e+01
       H  3.02871e+01 -3.92745e+01 -4.03688e+01
       H  3.26941e+01 -4.10809e+01 -3.92072e+01
       O  7.57313e+01 -9.31742e+01 -7.77647e+01
       H  7.56054e+01 -9.28530e+01 -7.59264e+01
       H  7.39184e+01 -9.43313e+01 -7.82599e+01
       O  2.92099e+01 -5.18917e+01  3.05377e+01
       H  2.82272e+01 -5.18713e+01  3.21154e+01
       H  3.01220e+01 -5.03669e+01  3.05925e+01
       O  6.30949e+01 -1.24758e+02 -1.64542e+01
       H  6.32789e+01 -1.23663e+02 -1.49891e+01
       H  6.14025e+01 -1.24689e+02 -1.70424e+01
       O  3.22430e+01 -2.93639e+01 -2.18733e+01
       H  3.41238e+01 -2.93230e+01 -2.31384e+01
       H  3.22251e+01 -3.02018e+01 -1.98552e+01
       O  9.11673e+01 -3.64917e+01 -5.96291e+01
       H  9.07748e+01 -3.81871e+01 -5.86740e+01
       H  9.26465e+01 -3.67496e+01 -6.06113e+01
       O  5.61684e+01 -5.73378e+01 -1.86082e+01
       H  5.66610e+01 -5.67744e+01 -2.02952e+01
       H  5.49600e+01 -5.86682e+01 -1.90738e+01
       O  5.78632e+01 -9.68055e+01 -4.84961e+01
       H  5.76514e+01 -9.57444e+01 -4.68157e+01
       H  5.77425e+01 -9.86671e+01 -4.85465e+01
       O  3.45906e+01 -7.49908e+01 -5.10206e+01
       H  3.28844e+01 -7.46288e+01 -5.07167e+01
       H  3.50590e+01 -7.61221e+01 -4.96564e+01
       O  2.89634e+01 -2.45631e+01 -2.24003e+01
       H  2.92191e+01 -2.63771e+01 -2.31201e+01
       H  2.87408e+01 -2.32923e+01 -2.37630e+01
       O  5.34431e+01 -6.54393e+01 -2.08122e+01
       H  5.35870e+01 -6.61158e+01 -2.27321e+01
       H  5.50826e+01 -6.53982e+01 -2.01132e+01
       O  9.37967e+01 -8.60465e+01 -3.59402e+01
       H  9.25366e+01 -8.48899e+01 -3.51795e+01
       H  9.48484e+01 -8.49405e+01 -3.69710e+01
       O  8.75827e+01 -9.16833e+01 -5.33219e+01
       H  8.83793e+01 -9.33750e+01 -5.30429e+01
       H  8.90202e+01 -9.02668e+01 -5.28667e+01
       O  9.25422e+01 -4.93530e+01 -6.75028e+01
       H  9.30527e+01 -4.96849e+01 -6.58308e+01
       H  9.29702e+01 -4.76782e+01 -6.74950e+01
       O  4.27666e+01 -1.03046e+02 -1.51312e+01
       H  4.13193e+01 -1.02403e+02 -1.38525e+01
       H  4.22391e+01 -1.02491e+02 -1.68585e+01
       O  3.07089e+01 -4.36813e+01 -3.21942e+01
       H  2.98863e+01 -4.25692e+01 -3.10823e+01
       H  2.94057e+01 -4.39687e+01 -3.35100e+01
       O  5.26162e+01 -7.05226e+01 -7.23051e+01
       H  5.09768e+01 -7.10341e+01 -7.17437e+01
       H  5.20012e+01 -6.93378e+01 -7.39044e+01
       O  7.88460e+01 -8.33064e+01  7.97389e+00
       H  8.02530e+01 -8.19069e+01  7.64809e+00
       H  7.96845e+01 -8.44012e+01  9.07417e+00
       O  4.07940e+01 -9.84730e+01 -2.76649e+01
       H  3.80736e+01 -9.93428e+01 -2.65574e+01
       H  4.07798e+01 -9.65419e+01 -2.79464e+01
       O  6.27633e+01 -5.07192e+01 -1.31212e+01
       H  6.28240e+01 -5.06545e+01 -1.13350e+01
       H  6.25126e+01 -5.27775e+01 -1.31130e+01
       O  7.37914e+01 -2.45733e+01 -3.85969e+01
       H  7.20815e+01 -2.36583e+01 -3.81205e+01
       H  7.44308e+01 -2.41980e+01 -4.00723e+01
       O  5.77330e+01 -8.45022e+01 -6.98059e+01
       H  5.82257e+01 -8.31148e+01 -6.84598e+01
       H  5.76841e+01 -8.35971e+01 -7.14816e+01
       O -1.51505e+01 -1.07956e+02 -1.65811e+01
       H -1.51695e+01 -1.07414e+02 -1.83265e+01
       H -1.61382e+01 -1.06827e+02 -1.55811e+01
       O  7.98941e+01 -1.03555e+02  1.00536e+01
       H  7.94256e+01 -1.04276e+02  1.20412e+01
       H  7.96510e+01 -1.05050e+02  9.16495e+00
       O  4.20609e+01 -3.39758e+01  8.22516e-01
       H  4.04429e+01 -3.30758e+01  7.41206e-01
       H  4.32098e+01 -3.29039e+01  2.06935e+00
       O  4.40239e+01 -5.97572e+01 -2.54830e+01
       H  4.59231e+01 -5.98558e+01 -2.59936e+01
       H  4.32503e+01 -5.81838e+01 -2.63246e+01
       O  5.20387e+01 -7.14004e+01  2.73492e+01
       H  5.22042e+01 -7.30720e+01  2.65797e+01
       H  5.37438e+01 -7.07812e+01  2.76014e+01
       O  3.70353e+01 -9.42232e+01 -2.52101e+01
       H  3.69877e+01 -9.30758e+01 -2.68663e+01
       H  3.62445e+01 -9.59938e+01 -2.54993e+01
       O  1.79747e+01 -6.82513e+01 -3.05372e+01
       H  1.68612e+01 -6.71765e+01 -3.16576e+01
       H  1.94690e+01 -6.90358e+01 -3.15865e+01
       O  4.87123e+01 -6.05996e+01 -5.76400e+01
       H  4.97497e+01 -5.89159e+01 -5.75087e+01
       H  4.99648e+01 -6.18155e+01 -5.77200e+01
       O  8.60984e+01 -6.94578e+01 -3.12406e+01
       H  8.67972e+01 -6.86590e+01 -3.30545e+01
       H  8.61265e+01 -6.79291e+01 -3.01685e+01
       O  9.95987e+01 -1.14657e+02 -2.20688e+01
       H  9.99071e+01 -1.15706e+02 -2.06273e+01
       H  9.87550e+01 -1.13039e+02 -2.17649e+01
       O  4.78805e+01 -4.81050e+01 -2.67291e+01
       H  4.67517e+01 -4.94363e+01 -2.71827e+01
       H  4.89570e+01 -4.75740e+01 -2.80981e+01
       O  4.57436e+01 -6.97280e+01 -2.60758e+01
       H  4.65028e+01 -6.87647e+01 -2.75585e+01
       H  4.65983e+01 -6.92977e+01 -2.43525e+01
       O  1.16091e+02 -9.12305e+01 -6.20849e+00
       H  1.16113e+02 -9.05046e+01 -7.91163e+00
       H  1.17867e+02 -9.12035e+01 -6.06733e+00
       O  3.77592e+01 -1.20470e+02 -3.77097e+01
       H  3.78706e+01 -1.18998e+02 -3.65032e+01
       H  3.90941e+01 -1.21954e+02 -3.72801e+01
       O  6.60172e+01 -7.77669e+01  1.30319e+01
       H  6.48098e+01 -7.83715e+01  1.43580e+01
       H  6.58471e+01 -7.57648e+01  1.29961e+01
       O  1.42740e+01 -2.80838e+01 -1.70017e+01
       H  1.57187e+01 -2.83718e+01 -1.80865e+01
       H  1.52819e+01 -2.69411e+01 -1.55728e+01
       O  4.04688e+01 -7.75913e+01 -2.82455e+01
       H  4.18076e+01 -7.62598e+01 -2.73698e+01
       H  3.87294e+01 -7.67972e+01 -2.76492e+01
       O -1.23027e+01 -8.35886e+01 -4.40523e+01
       H -1.07848e+01 -8.46534e+01 -4.42893e+01
       H -1.19655e+01 -8.21738e+01 -4.50137e+01
       O  1.46805e+02 -6.70724e+01 -3.53254e+01
       H  1.46583e+02 -6.51957e+01 -3.52639e+01
       H  1.45849e+02 -6.75595e+01 -3.69113e+01
       O  2.36125e+01  3.12611e+01 -3.92927e+01
       H  2.53156e+01  3.20589e+01 -3.98194e+01
       H  2.30495e+01  3.24241e+01 -3.80258e+01
       O  7.39155e+00 -6.19363e+01 -5.90959e+01
       H  6.11012e+00 -6.23832e+01 -6.03090e+01
       H  7.22071e+00 -5.98889e+01 -5.86874e+01
       O  9.75747e+00 -5.31006e+01 -5.72960e+01
       H  1.07689e+01 -5.17292e+01 -5.66021e+01
       H  8.14653e+00 -5.32668e+01 -5.64455e+01
       O  5.70631e+01 -4.37508e+01 -1.33835e+01
       H  5.63137e+01 -4.53676e+01 -1.38548e+01
       H  5.51808e+01 -4.27901e+01 -1.30568e+01
       O  4.69241e+01 -2.93740e+01  8.66590e+00
       H  4.55083e+01 -2.96031e+01  7.51882e+00
       H  4.71264e+01 -3.11995e+01  8.90689e+00
       O  9.16953e+01 -9.09615e+01 -3.40925e+01
       H  9.26604e+01 -9.23897e+01 -3.49149e+01
       H  9.18286e+01 -8.93273e+01 -3.52032e+01
       O  8.07716e+01 -1.15239e+02 -5.60857e+01
       H  8.25619e+01 -1.15462e+02 -5.58843e+01
       H  8.02101e+01 -1.14266e+02 -5.47729e+01
       O  2.56009e+01 -1.01274e+02 -2.04391e+01
       H  2.41038e+01 -1.02272e+02 -2.01411e+01
       H  2.52548e+01 -1.00889e+02 -2.22746e+01
       O  8.06576e+01 -1.10184e+02 -3.41693e+01
       H  7.84699e+01 -1.10269e+02 -3.40603e+01
       H  8.09914e+01 -1.12010e+02 -3.34896e+01
       O  4.75050e+01 -6.93908e+01 -5.06673e+01
       H  4.86240e+01 -6.78869e+01 -5.01834e+01
       H  4.86855e+01 -7.08963e+01 -5.11038e+01
       O  7.22248e+01 -4.11537e+01 -1.08725e+02
       H  7.11894e+01 -3.98693e+01 -1.09517e+02
       H  7.38380e+01 -4.06489e+01 -1.09213e+02
       O  4.63774e+01 -8.42118e+01  4.78628e-01
       H  4.57574e+01 -8.41384e+01  2.23434e+00
       H  4.84058e+01 -8.44448e+01  7.62633e-01
       O  5.09827e+01 -7.85504e+01 -2.26449e+01
       H  4.95977e+01 -7.85502e+01 -2.38546e+01
       H  5.25415e+01 -7.82528e+01 -2.35278e+01
       O  8.60370e+01 -4.51175e+01 -2.77776e+01
       H  8.48831e+01 -4.45344e+01 -2.65314e+01
       H  8.74602e+01 -4.40409e+01 -2.77365e+01
       O  1.25663e+02 -8.79197e+01 -4.20898e+01
       H  1.25220e+02 -8.91586e+01 -4.06826e+01
       H  1.26032e+02 -8.92087e+01 -4.33873e+01
       O  5.42422e+01 -8.92154e+01 -9.10057e+01
       H  5.56262e+01 -8.96942e+01 -8.98557e+01
       H  5.53224e+01 -8.93407e+01 -9.24449e+01
       O  3.40836e+01 -2.36511e+01 -2.60960e+01
       H  3.25524e+01 -2.34426e+01 -2.71755e+01
       H  3.41712e+01 -2.30049e+01 -2.43718e+01
       O  4.58463e+01 -8.01055e+01  2.63717e+01
       H  4.44386e+01 -8.06153e+01  2.53849e+01
       H  4.62211e+01 -8.16050e+01  2.72703e+01
       O  1.04605e+02 -7.48069e+01 -6.21293e+01
       H  1.05491e+02 -7.43571e+01 -6.05530e+01
       H  1.05256e+02 -7.65959e+01 -6.25479e+01
       O  6.05829e+01 -4.06594e+01 -2.68856e+01
       H  6.02241e+01 -4.01657e+01 -2.53101e+01
       H  6.27688e+01 -4.08639e+01 -2.68409e+01
       O  6.44875e+01 -4.45015e+01 -3.87169e+01
       H  6.55467e+01 -4.40875e+01 -3.69650e+01
       H  6.59618e+01 -4.38054e+01 -3.98382e+01
       O  5.12824e+01  2.23951e+00 -7.33341e+01
       H  5.29269e+01  1.92607e+00 -7.40073e+01
       H  5.18357e+01  2.21021e+00 -7.16109e+01
       O  8.19649e+01 -3.47591e+01  1.78883e+00
       H  8.07836e+01 -3.53989e+01  6.16510e-01
       H  8.35144e+01 -3.43379e+01  7.41295e-01
       O  6.52386e+01 -1.28626e+02 -5.02660e+01
       H  6.48350e+01 -1.30103e+02 -5.12309e+01
       H  6.44259e+01 -1.28750e+02 -4.85126e+01
       O  6.56578e+01 -7.58882e+01  2.79155e+00
       H  6.44110e+01 -7.67866e+01  1.53837e+00
       H  6.47240e+01 -7.61025e+01  4.41465e+00
       O  3.88227e+01 -8.81705e+01 -1.71222e+01
       H  4.06608e+01 -8.82372e+01 -1.72775e+01
       H  3.80502e+01 -8.94963e+01 -1.84213e+01
       O  7.46594e+01 -9.41500e+01 -3.29227e+00
       H  7.16064e+01 -9.86599e+01  3.07907e+00
       H  7.38281e+01 -9.37871e+01 -4.87038e+00
       O  4.02074e+01 -8.70242e+01 -3.42640e+01
       H  4.16092e+01 -8.80804e+01 -3.35024e+01
       H  4.10259e+01 -8.65302e+01 -3.58097e+01
       O  6.54367e+01 -5.57690e+01 -6.02380e+01
       H  6.69420e+01 -5.50429e+01 -5.97774e+01
       H  6.59398e+01 -5.69052e+01 -6.17618e+01
       O  8.38744e+01 -6.83704e+01 -5.47866e+01
       H  8.22016e+01 -6.91872e+01 -5.54419e+01
       H  8.40417e+01 -6.70843e+01 -5.58896e+01
       O  5.73769e+01 -9.27706e+01 -8.83935e+01
       H  5.76700e+01 -9.19345e+01 -8.68196e+01
       H  5.90370e+01 -9.35116e+01 -8.87960e+01
       O  3.13954e+01 -8.77305e+01 -2.93234e+01
       H  3.12792e+01 -8.92736e+01 -3.05190e+01
       H  3.28757e+01 -8.64868e+01 -2.97753e+01
       O  7.66641e+01 -5.85719e+01 -6.57384e+01
       H  7.55473e+01 -5.73960e+01 -6.68188e+01
       H  7.58512e+01 -5.95381e+01 -6.43446e+01
       O  7.00349e+01 -2.31267e+01 -7.32405e+01
       H  7.14654e+01 -2.19667e+01 -7.37178e+01
       H  7.05886e+01 -2.45263e+01 -7.43154e+01
       O  9.86046e+01  8.62489e+00 -7.94556e+01
       H  9.93612e+01  1.00462e+01 -7.99480e+01
       H  9.77645e+01  8.97164e+00 -7.79859e+01
       O  4.16902e+01 -3.54927e+01 -7.88252e+00
       H  4.29507e+01 -3.48148e+01 -9.06977e+00
       H  4.39267e+01 -3.43853e+01 -2.02087e+00
       O  6.61691e+01 -6.23691e+01  8.97711e+00
       H  6.63019e+01 -6.29739e+01  7.26989e+00
       H  6.48057e+01 -6.30267e+01  1.01218e+01
       O  8.73232e+01 -6.41816e+01 -4.48519e+01
       H  8.81865e+01 -6.26697e+01 -4.55568e+01
       H  8.59286e+01 -6.39102e+01 -4.31730e+01
       O  4.94508e+01 -6.67867e+01 -3.69852e+01
       H  5.01362e+01 -6.54815e+01 -3.58107e+01
       H  5.08705e+01 -6.73212e+01 -3.80290e+01
       O  6.81863e+01 -1.01507e+02 -4.17448e+01
       H  6.74354e+01 -1.00135e+02 -4.26925e+01
       H  6.90152e+01 -1.00650e+02 -4.03118e+01
       O  4.62138e+01 -1.30283e+02 -6.85016e+00
       H  4.61059e+01 -1.31515e+02 -5.41886e+00
       H  4.73878e+01 -1.28901e+02 -6.42224e+00
       O  5.36588e+01 -9.26963e+01 -1.16022e+01
       H  5.35240e+01 -9.12482e+01 -1.02735e+01
       H  5.20569e+01 -9.27570e+01 -1.24530e+01
       O  1.07917e+02 -9.14040e+01 -1.44245e+01
       H  1.08543e+02 -8.96431e+01 -1.42701e+01
       H  1.06494e+02 -9.15739e+01 -1.31700e+01
       O  7.04824e+01 -6.61517e+01 -2.12395e+01
       H  6.90687e+01 -6.57669e+01 -2.01194e+01
       H  6.99132e+01 -6.55932e+01 -2.31512e+01
       O  5.14512e+01 -4.28590e+01 -5.62113e+01
       H  4.95236e+01 -4.30523e+01 -5.62294e+01
       H  5.16488e+01 -4.23276e+01 -5.78637e+01
       O  3.27269e+01 -5.63007e+01 -4.23075e+01
       H  3.47558e+01 -5.66997e+01 -4.20166e+01
       H  3.16052e+01 -5.60892e+01 -4.09938e+01
       O  8.83016e+01 -7.57779e+01 -8.00651e+01
       H  8.90249e+01 -7.71551e+01 -7.88235e+01
       H  8.72866e+01 -7.43531e+01 -7.95147e+01
       O  5.92699e+00 -6.99734e+01 -1.52560e+01
       H  4.66164e+00 -7.11812e+01 -1.50058e+01
       H  5.07363e+00 -6.84129e+01 -1.50939e+01
       O  4.32301e+01 -1.35227e+02 -5.07477e+01
       H  4.33548e+01 -1.33745e+02 -4.97736e+01
       H  4.31042e+01 -1.34719e+02 -5.23953e+01
       O  1.13134e+02 -7.87232e+01 -1.41834e+01
       H  1.11393e+02 -7.81494e+01 -1.41728e+01
       H  1.13034e+02 -8.03802e+01 -1.48655e+01
       O  2.63946e+01 -4.39793e+01 -3.57458e+01
       H  2.59196e+01 -4.55076e+01 -3.61786e+01
       H  2.65366e+01 -4.29631e+01 -3.72710e+01
       O  1.03025e+02 -4.47831e+01 -5.54484e+01
       H  1.04444e+02 -4.57519e+01 -5.57052e+01
       H  1.03731e+02 -4.28047e+01 -5.54958e+01
       O  1.29700e+02 -9.94377e+01 -7.43266e+00
       H  1.29684e+02 -9.63681e+01 -7.91591e+00
       H  1.31625e+02 -9.98865e+01 -7.56935e+00
       O  6.22975e+01 -4.44181e+01 -4.40765e+01
       H  6.25484e+01 -4.52165e+01 -4.25014e+01
       H  6.04130e+01 -4.38454e+01 -4.40140e+01
       O  7.39033e+01 -2.96481e+01 -3.17210e+01
       H  7.47329e+01 -3.09016e+01 -3.11221e+01
       H  7.43299e+01 -2.81740e+01 -3.05551e+01
       O  8.96949e+01 -1.08692e+02  1.16873e+01
       H  9.11571e+01 -1.09453e+02  1.10798e+01
       H  9.02294e+01 -1.08411e+02  1.35344e+01
       O  1.15750e+02 -1.12227e+02 -7.44621e+01
       H  1.15969e+02 -1.13849e+02 -7.52011e+01
       H  1.16955e+02 -1.11116e+02 -7.53041e+01
       O  8.56475e+01 -5.78973e+01 -5.62058e+01
       H  8.71102e+01 -5.79359e+01 -5.73290e+01
       H  8.53888e+01 -5.95818e+01 -5.52425e+01
