1
# CELL(abcABC):  188.97261   188.97261   188.97261    90.00000    90.00000    90.00000  Step:           0  Bead:       0 momenta{atomic_unit}  cell{atomic_unit}
       H -1.81067e+00  2.41073e-01 -1.26140e-01
1
# CELL(abcABC):  188.97261   188.97261   188.97261    90.00000    90.00000    90.00000  Step:           1  Bead:       0 momenta{atomic_unit}  cell{atomic_unit}
       H -1.80956e+00  2.41080e-01 -1.26027e-01
1
# CELL(abcABC):  188.97261   188.97261   188.97261    90.00000    90.00000    90.00000  Step:           2  Bead:       0 momenta{atomic_unit}  cell{atomic_unit}
       H -1.80626e+00  2.41103e-01 -1.25687e-01
1
# CELL(abcABC):  188.97261   188.97261   188.97261    90.00000    90.00000    90.00000  Step:           3  Bead:       0 momenta{atomic_unit}  cell{atomic_unit}
       H -1.80076e+00  2.41140e-01 -1.25122e-01
1
# CELL(abcABC):  188.97261   188.97261   188.97261    90.00000    90.00000    90.00000  Step:           4  Bead:       0 momenta{atomic_unit}  cell{atomic_unit}
       H -1.79307e+00  2.41190e-01 -1.24333e-01
1
# CELL(abcABC):  188.97261   188.97261   188.97261    90.00000    90.00000    90.00000  Step:           5  Bead:       0 momenta{atomic_unit}  cell{atomic_unit}
       H -1.78320e+00  2.41253e-01 -1.23320e-01
1
# CELL(abcABC):  188.97261   188.97261   188.97261    90.00000    90.00000    90.00000  Step:           6  Bead:       0 momenta{atomic_unit}  cell{atomic_unit}
       H -1.77116e+00  2.41325e-01 -1.22085e-01
1
# CELL(abcABC):  188.97261   188.97261   188.97261    90.00000    90.00000    90.00000  Step:           7  Bead:       0 momenta{atomic_unit}  cell{atomic_unit}
       H -1.75696e+00  2.41405e-01 -1.20631e-01
1
# CELL(abcABC):  188.97261   188.97261   188.97261    90.00000    90.00000    90.00000  Step:           8  Bead:       0 momenta{atomic_unit}  cell{atomic_unit}
       H -1.74063e+00  2.41489e-01 -1.18960e-01
1
# CELL(abcABC):  188.97261   188.97261   188.97261    90.00000    90.00000    90.00000  Step:           9  Bead:       0 momenta{atomic_unit}  cell{atomic_unit}
       H -1.72218e+00  2.41576e-01 -1.17074e-01
