LAMMPS Description
 
         192  atoms
         128  bonds
          64  angles
 
           2  atom types
           1  bond types
           1  angle types
 
         0 23.46140 xlo xhi
         0 23.46140 ylo yhi
         0 23.46140 zlo zhi
 
Masses
 
  1 15.9994
  2  1.0080
 
Bond Coeffs
 
  1    1.78    0.2708585 -0.327738785 0.231328959
 
Angle Coeffs
 
  1    0.0700  107.400000

Atoms
 
 1 1 1 -1.1128       3.84600000       5.67200001       1.32300000
 2 1 2 0.5564        2.97900000       7.05400000       0.85700000
 3 1 2 0.5564        5.52500001       5.69700001       0.45100000
 4 2 1 -1.1128      34.55700001      34.34100000       3.07800000
 5 2 2 0.5564       33.72200001      34.68900000       4.84000001
 6 2 2 0.5564       36.02900000      33.22000001       3.71100001
 7 3 1 -1.1128       5.59100000       1.96299999      13.47700000
 8 3 2 0.5564        7.26500000       1.86400000      13.85100001
 9 3 2 0.5564        5.00899999       3.55500000      13.91599999
 10 4 1 -1.1128       1.06000000       2.06100000      21.71800001
 11 4 2 0.5564        0.75700000       0.26100000      21.82000000
 12 4 2 0.5564        0.21300001       3.01299999      23.04700000
 13 5 1 -1.1128       1.20000000       1.33700000      29.00599999
 14 5 2 0.5564        0.81800000       1.88399999      30.73200000
 15 5 2 0.5564        2.88300001       1.82500000      29.01100000
 16 6 1 -1.1128       1.33100001       1.38599999      34.30600001
 17 6 2 0.5564        2.39200001       2.89799999      34.84600000
 18 6 2 0.5564        0.81400000       0.53200001      35.83600000
 19 7 1 -1.1128      31.45100000      10.20100000       0.72599999
 20 7 2 0.5564       32.28199999      10.87699999      -0.75000000
 21 7 2 0.5564       30.91999999      11.59399999       1.67700000
 22 8 1 -1.1128       0.83600000      10.80800001       4.29800000
 23 8 2 0.5564        0.30500000      10.64300001       2.79300000
 24 8 2 0.5564       -0.35600001      10.33400000       5.52400000
 25 9 1 -1.1128      34.38100001       5.97900000       9.19400000
 26 9 2 0.5564       33.61600000       7.67300000       8.85700000
 27 9 2 0.5564       35.11500000       5.25999999       7.61800001
 28 10 1 -1.1128      33.21200000       6.48000000      24.27799999
 29 10 2 0.5564       31.62400000       6.90800001      23.52100001
 30 10 2 0.5564       32.54400000       4.99000000      24.98200000
 31 11 1 -1.1128       1.99200000       9.00199999      26.86300000
 32 11 2 0.5564        1.85600000      10.17500000      25.57899999
 33 11 2 0.5564        0.51900000       8.09899999      26.38599999
 34 12 1 -1.1128       2.05400000       8.66000000      32.51499999
 35 12 2 0.5564        2.16699999       8.72700000      30.49400000
 36 12 2 0.5564        2.37400001      10.51300000      33.03799999
 37 13 1 -1.1128       3.40200000      16.63900001       3.00800000
 38 13 2 0.5564        4.12700001      15.87200001       4.44600001
 39 13 2 0.5564        2.90500001      18.33899999       3.15999999
 40 14 1 -1.1128       4.22200000      15.44400000       8.07200000
 41 14 2 0.5564        5.21100000      16.75600000       8.29900001
 42 14 2 0.5564        2.56000000      15.49200001       8.86000000
 43 15 1 -1.1128       2.83100000       9.24599999      16.48800000
 44 15 2 0.5564        2.86900001       8.02300001      18.05000000
 45 15 2 0.5564        3.96000000       8.46700001      15.15400000
 46 16 1 -1.1128       5.56300000       6.00300000      20.90700000
 47 16 2 0.5564        4.65300000       4.63800000      21.48000000
 48 16 2 0.5564        6.40500000       6.20800000      22.52899999
 49 17 1 -1.1128       2.08700001      13.37000000      22.91299999
 50 17 2 0.5564        2.83200000      14.80400001      23.42200000
 51 17 2 0.5564        1.43400000      13.50900000      21.19599999
 52 18 1 -1.1128       3.36900000      17.88600000      25.10900001
 53 18 2 0.5564        3.65500000      17.20000000      26.76599999
 54 18 2 0.5564        4.77200001      18.97699999      24.49999999
 55 19 1 -1.1128      34.76400000      20.80300000       0.94800001
 56 19 2 0.5564       35.20999999      21.26700001       2.81599999
 57 19 2 0.5564       35.96200001      21.72599999       0.13099999
 58 20 1 -1.1128       2.83600000      24.17799999      15.22900000
 59 20 2 0.5564        2.79500000      22.34599999      14.87600001
 60 20 2 0.5564        2.41399999      24.11500000      17.13000001
 61 21 1 -1.1128      33.00000000      24.48100000      15.23000000
 62 21 2 0.5564       34.63999999      24.80400001      15.01299999
 63 21 2 0.5564       32.40100000      25.76400000      14.29500001
 64 22 1 -1.1128       0.40399999      26.77900001      23.39999999
 65 22 2 0.5564        1.35300001      27.24800000      24.98700001
 66 22 2 0.5564        1.54600001      28.05000000      22.31700001
 67 23 1 -1.1128      34.22200000      21.38000000      25.41799999
 68 23 2 0.5564       35.66899999      20.15100000      25.31700001
 69 23 2 0.5564       32.96000000      21.18000000      23.99200000
 70 24 1 -1.1128      33.25900000      17.43800000      32.48000000
 71 24 2 0.5564       33.31399999      18.78200000      33.88300001
 72 24 2 0.5564       32.74300001      18.18100001      30.87100000
 73 25 1 -1.1128       4.46300000      21.97900000       3.93600000
 74 25 2 0.5564        5.85600000      23.08400001       3.39999999
 75 25 2 0.5564        3.98600000      22.18000000       5.60200000
 76 26 1 -1.1128       6.25800000      25.85100001       8.52000000
 77 26 2 0.5564        5.76700000      27.69300001       8.47600000
 78 26 2 0.5564        7.20200001      25.50600000      10.18600000
 79 27 1 -1.1128       0.60099999      29.73699999      12.74700001
 80 27 2 0.5564       -0.68500000      30.84200000      12.34999999
 81 27 2 0.5564        1.33600000      30.71600000      14.03099999
 82 28 1 -1.1128       7.56300000      28.19100001      24.33300000
 83 28 2 0.5564        9.20100000      28.82800000      24.68400000
 84 28 2 0.5564        7.38100001      27.62100000      22.79900000
 85 29 1 -1.1128       3.65300000      27.10900001      27.77200001
 86 29 2 0.5564        5.12600000      27.01500000      26.77200001
 87 29 2 0.5564        3.03099999      28.75600000      27.69800000
 88 30 1 -1.1128       2.59600001      23.99100001      32.47600000
 89 30 2 0.5564        2.87900000      24.79099999      30.85899999
 90 30 2 0.5564        4.00300000      22.91299999      32.70099999
 91 31 1 -1.1128       3.08300000      31.31700001       3.64399999
 92 31 2 0.5564        4.13300000      30.58900001       2.53900001
 93 31 2 0.5564        4.21800000      32.17300001       5.03700001
 94 32 1 -1.1128       4.66100001      30.55500000       9.36799999
 95 32 2 0.5564        3.18400001      29.84300000      10.13200000
 96 32 2 0.5564        4.35800000      32.44800000       9.12600000
 97 33 1 -1.1128       3.46499999      32.53700000      15.77800000
 98 33 2 0.5564        5.07200000      31.81899999      15.90300000
 99 33 2 0.5564        4.05500001      34.25699999      15.28400000
 100 34 1 -1.1128       4.21500000      29.15299999      20.31700001
 101 34 2 0.5564        3.65799999      30.17600000      18.84200000
 102 34 2 0.5564        4.95899999      30.29100000      21.44900001
 103 35 1 -1.1128       1.12600000      31.33300000      28.76800001
 104 35 2 0.5564        2.39500000      31.12399999      29.92500000
 105 35 2 0.5564        0.76800001      33.09199999      28.89799999
 106 36 1 -1.1128       4.88100000      32.61600000      32.30200000
 107 36 2 0.5564        6.58800000      32.91100000      31.72500001
 108 36 2 0.5564        4.48599999      34.03700001      33.24900001
 109 37 1 -1.1128       8.96200001       5.55600000       0.15100000
 110 37 2 0.5564        9.65200000       6.99100001       0.85899999
 111 37 2 0.5564        9.17300001       4.47700000       1.64500000
 112 38 1 -1.1128       1.83300001       3.51799999       5.67900001
 113 38 2 0.5564        2.88900000       2.73100000       6.78800000
 114 38 2 0.5564        2.78900000       4.18700000       4.14700000
 115 39 1 -1.1128      10.51000001      34.72599999      13.07300001
 116 39 2 0.5564       11.91999999      34.11800000      11.91900001
 117 39 2 0.5564       11.29500001      34.96800000      14.74100000
 118 40 1 -1.1128       7.21200000       0.04199999      22.45399999
 119 40 2 0.5564        6.92400000       0.47000000      24.17200000
 120 40 2 0.5564        8.31900000       1.22799999      21.65300000
 121 41 1 -1.1128       6.36500000       2.01000000      27.54400000
 122 41 2 0.5564        5.95400000       3.58500000      26.85199999
 123 41 2 0.5564        7.75800001       2.54900000      28.69600000
 124 42 1 -1.1128      10.83300001       3.14000000      30.78699999
 125 42 2 0.5564       12.69700001       2.97500000      30.86700000
 126 42 2 0.5564       10.38899999       3.70000001      32.40399999
 127 43 1 -1.1128       8.68400000       9.34200001       3.91200001
 128 43 2 0.5564        6.98500000       9.25600001       4.77299999
 129 43 2 0.5564        8.68400000      10.80899999       3.01100000
 130 44 1 -1.1128       4.87299999       9.91900001       7.70700000
 131 44 2 0.5564        3.69800000       9.77100000       6.19400000
 132 44 2 0.5564        5.04700000      11.96100000       7.62400000
 133 45 1 -1.1128      10.03099999       5.01800000       9.69900000
 134 45 2 0.5564        9.67500001       3.38199999      10.34000000
 135 45 2 0.5564        9.13200000       5.98700001      10.82500000
 136 46 1 -1.1128      11.24599999       3.91800000      21.92900000
 137 46 2 0.5564       12.61400001       2.77000000      22.34100000
 138 46 2 0.5564       12.07300001       5.68600001      21.49699999
 139 47 1 -1.1128       6.82500000       7.16400000      25.70799999
 140 47 2 0.5564        8.03600000       8.37400001      25.98000001
 141 47 2 0.5564        5.20600001       7.90000000      25.89099999
 142 48 1 -1.1128      10.17099999      12.81100001       0.29500001
 143 48 2 0.5564       10.03300000      12.81800000      -1.60900000
 144 48 2 0.5564        9.87999999      14.49200001       0.48000000
 145 49 1 -1.1128       8.19000000      17.40200000       1.25299999
 146 49 2 0.5564        9.47199999      18.53100000       1.25299999
 147 49 2 0.5564        6.35100000      17.81700000       1.56800001
 148 50 1 -1.1128      11.23300000      16.18800001       8.29900001
 149 50 2 0.5564       10.29100000      17.68900000       8.16600001
 150 50 2 0.5564       12.76800001      17.12300001       8.73299999
 151 51 1 -1.1128       6.38599999       8.00199999      12.84600000
 152 51 2 0.5564        7.70099999       8.89600000      13.65500000
 153 51 2 0.5564        5.59100000       8.87699999      11.51900000
 154 52 1 -1.1128       8.18400001      10.41900000      18.84799999
 155 52 2 0.5564        9.49800000       9.43400000      19.90500001
 156 52 2 0.5564        6.88200000       9.02699999      18.94800001
 157 53 1 -1.1128      10.80600000      14.43100000      21.32799999
 158 53 2 0.5564        9.17700001      13.53100000      20.67000000
 159 53 2 0.5564       11.34400000      15.69600000      20.44800000
 160 54 1 -1.1128       9.23700000      13.92800000      30.34100000
 161 54 2 0.5564       10.77900001      14.83900000      30.52199999
 162 54 2 0.5564        9.96500000      13.19199999      28.89900000
 163 55 1 -1.1128      10.91800000      21.70700000       1.86400000
 164 55 2 0.5564       10.28000000      23.44900001       2.27900000
 165 55 2 0.5564       12.70799999      21.45600000       1.74900000
 166 56 1 -1.1128       9.35300001      16.12500000      13.92699999
 167 56 2 0.5564        9.93799999      17.59399999      14.61800001
 168 56 2 0.5564        9.51799999      16.36000001      12.24400000
 169 57 1 -1.1128      10.37099999      11.10700000      14.26800000
 170 57 2 0.5564        9.64399999      10.40600001      15.85899999
 171 57 2 0.5564        9.43400000      12.52300000      14.11699999
 172 58 1 -1.1128       3.35100000      22.76899999      20.19599999
 173 58 2 0.5564        2.05500001      23.68600001      21.50300001
 174 58 2 0.5564        2.45200000      21.40100000      19.41300000
 175 59 1 -1.1128       6.83600000      21.32900000      23.19899999
 176 59 2 0.5564        8.24900001      20.84799999      22.32000001
 177 59 2 0.5564        5.66800001      21.84099999      21.88600000
 178 60 1 -1.1128       4.60399999      15.64900000      30.04300000
 179 60 2 0.5564        6.45300001      15.21699999      30.20700000
 180 60 2 0.5564        3.82200001      14.76199999      31.56200000
 181 61 1 -1.1128       7.12500000      19.97600001       9.42100001
 182 61 2 0.5564        5.91800000      20.45300001      10.72999999
 183 61 2 0.5564        8.09899999      21.49600001       9.49100000
 184 62 1 -1.1128       9.06299999      25.91200001      13.18600000
 185 62 2 0.5564       10.34999999      26.57199999      12.36700001
 186 62 2 0.5564        9.67999999      24.36700001      13.69700001
 187 63 1 -1.1128       8.02200000      22.34299999      17.04199999
 188 63 2 0.5564        9.14400000      23.36700001      18.07399999
 189 63 2 0.5564        6.56200000      23.46200000      16.85199999
 190 64 1 -1.1128      10.76199999      26.28499999      19.96299999
 191 64 2 0.5564       11.03600000      27.96599999      20.53800000
 192 64 2 0.5564       11.07800000      25.40100000      21.45600000

Bonds

 1 1 1 2
 2 1 1 3
 3 1 4 5
 4 1 4 6
 5 1 7 8
 6 1 7 9
 7 1 10 11
 8 1 10 12
 9 1 13 14
 10 1 13 15
 11 1 16 17
 12 1 16 18
 13 1 19 20
 14 1 19 21
 15 1 22 23
 16 1 22 24
 17 1 25 26
 18 1 25 27
 19 1 28 29
 20 1 28 30
 21 1 31 32
 22 1 31 33
 23 1 34 35
 24 1 34 36
 25 1 37 38
 26 1 37 39
 27 1 40 41
 28 1 40 42
 29 1 43 44
 30 1 43 45
 31 1 46 47
 32 1 46 48
 33 1 49 50
 34 1 49 51
 35 1 52 53
 36 1 52 54
 37 1 55 56
 38 1 55 57
 39 1 58 59
 40 1 58 60
 41 1 61 62
 42 1 61 63
 43 1 64 65
 44 1 64 66
 45 1 67 68
 46 1 67 69
 47 1 70 71
 48 1 70 72
 49 1 73 74
 50 1 73 75
 51 1 76 77
 52 1 76 78
 53 1 79 80
 54 1 79 81
 55 1 82 83
 56 1 82 84
 57 1 85 86
 58 1 85 87
 59 1 88 89
 60 1 88 90
 61 1 91 92
 62 1 91 93
 63 1 94 95
 64 1 94 96
 65 1 97 98
 66 1 97 99
 67 1 100 101
 68 1 100 102
 69 1 103 104
 70 1 103 105
 71 1 106 107
 72 1 106 108
 73 1 109 110
 74 1 109 111
 75 1 112 113
 76 1 112 114
 77 1 115 116
 78 1 115 117
 79 1 118 119
 80 1 118 120
 81 1 121 122
 82 1 121 123
 83 1 124 125
 84 1 124 126
 85 1 127 128
 86 1 127 129
 87 1 130 131
 88 1 130 132
 89 1 133 134
 90 1 133 135
 91 1 136 137
 92 1 136 138
 93 1 139 140
 94 1 139 141
 95 1 142 143
 96 1 142 144
 97 1 145 146
 98 1 145 147
 99 1 148 149
 100 1 148 150
 101 1 151 152
 102 1 151 153
 103 1 154 155
 104 1 154 156
 105 1 157 158
 106 1 157 159
 107 1 160 161
 108 1 160 162
 109 1 163 164
 110 1 163 165
 111 1 166 167
 112 1 166 168
 113 1 169 170
 114 1 169 171
 115 1 172 173
 116 1 172 174
 117 1 175 176
 118 1 175 177
 119 1 178 179
 120 1 178 180
 121 1 181 182
 122 1 181 183
 123 1 184 185
 124 1 184 186
 125 1 187 188
 126 1 187 189
 127 1 190 191
 128 1 190 192

Angles

 1 1 2 1 3
 2 1 5 4 6
 3 1 8 7 9
 4 1 11 10 12
 5 1 14 13 15
 6 1 17 16 18
 7 1 20 19 21
 8 1 23 22 24
 9 1 26 25 27
 10 1 29 28 30
 11 1 32 31 33
 12 1 35 34 36
 13 1 38 37 39
 14 1 41 40 42
 15 1 44 43 45
 16 1 47 46 48
 17 1 50 49 51
 18 1 53 52 54
 19 1 56 55 57
 20 1 59 58 60
 21 1 62 61 63
 22 1 65 64 66
 23 1 68 67 69
 24 1 71 70 72
 25 1 74 73 75
 26 1 77 76 78
 27 1 80 79 81
 28 1 83 82 84
 29 1 86 85 87
 30 1 89 88 90
 31 1 92 91 93
 32 1 95 94 96
 33 1 98 97 99
 34 1 101 100 102
 35 1 104 103 105
 36 1 107 106 108
 37 1 110 109 111
 38 1 113 112 114
 39 1 116 115 117
 40 1 119 118 120
 41 1 122 121 123
 42 1 125 124 126
 43 1 128 127 129
 44 1 131 130 132
 45 1 134 133 135
 46 1 137 136 138
 47 1 140 139 141
 48 1 143 142 144
 49 1 146 145 147
 50 1 149 148 150
 51 1 152 151 153
 52 1 155 154 156
 53 1 158 157 159
 54 1 161 160 162
 55 1 164 163 165
 56 1 167 166 168
 57 1 170 169 171
 58 1 173 172 174
 59 1 176 175 177
 60 1 179 178 180
 61 1 182 181 183
 62 1 185 184 186
 63 1 188 187 189
 64 1 191 190 192
