LAMMPS Description
 
         3  atoms
         2  bonds
         1  angles
 
           2  atom types
           1  bond types
           1  angle types
 
         -17.6165 17.6165 xlo xhi
         -17.6165 17.6165 ylo yhi
         -17.6165 17.6165 zlo zhi
 
Masses
 
  1 15.9994
  2  1.0080
 
Bond Coeffs
 
  1    1.78    0.2708585 -0.327738785 0.231328959
 
Angle Coeffs
 
  1    0.0700  107.400000

Atoms
 
 1 1 1 -1.1128       3.84600000       5.67200001       1.32300000
 2 1 2 0.5564        2.97900000       7.05400000       0.85700000
 3 1 2 0.5564        5.52500001       5.69700001       0.45100000

Bonds

 1 1 1 2
 2 1 1 3

Angles

 1 1 2 1 3
