3
# CELL(abcABC):    7.00000     7.00000     7.00000    90.00000    90.00000    90.00000  Step:           0  Bead:       0 becy{atomic_unit}  cell{atomic_unit}
       O -2.82010e-06 -4.07001e-01 -3.64400e-07
       H  1.41010e-06  2.03501e-01 -7.35217e-02
       H  1.41010e-06  2.03500e-01  7.35220e-02
3
# CELL(abcABC):    7.00000     7.00000     7.00000    90.00000    90.00000    90.00000  Step:           1  Bead:       0 becy{atomic_unit}  cell{atomic_unit}
       O -2.82010e-06 -4.07001e-01 -3.64400e-07
       H  1.41010e-06  2.03501e-01 -7.35217e-02
       H  1.41010e-06  2.03500e-01  7.35220e-02
3
# CELL(abcABC):    7.00000     7.00000     7.00000    90.00000    90.00000    90.00000  Step:           2  Bead:       0 becy{atomic_unit}  cell{atomic_unit}
       O -2.82010e-06 -4.07001e-01 -3.64400e-07
       H  1.41010e-06  2.03501e-01 -7.35217e-02
       H  1.41010e-06  2.03500e-01  7.35220e-02
3
# CELL(abcABC):    7.00000     7.00000     7.00000    90.00000    90.00000    90.00000  Step:           3  Bead:       0 becy{atomic_unit}  cell{atomic_unit}
       O -2.82010e-06 -4.07001e-01 -3.64400e-07
       H  1.41010e-06  2.03501e-01 -7.35217e-02
       H  1.41010e-06  2.03500e-01  7.35220e-02
3
# CELL(abcABC):    7.00000     7.00000     7.00000    90.00000    90.00000    90.00000  Step:           4  Bead:       0 becy{atomic_unit}  cell{atomic_unit}
       O -2.82010e-06 -4.07001e-01 -3.64400e-07
       H  1.41010e-06  2.03501e-01 -7.35217e-02
       H  1.41010e-06  2.03500e-01  7.35220e-02
3
# CELL(abcABC):    7.00000     7.00000     7.00000    90.00000    90.00000    90.00000  Step:           5  Bead:       0 becy{atomic_unit}  cell{atomic_unit}
       O -2.82010e-06 -4.07001e-01 -3.64400e-07
       H  1.41010e-06  2.03501e-01 -7.35217e-02
       H  1.41010e-06  2.03500e-01  7.35220e-02
3
# CELL(abcABC):    7.00000     7.00000     7.00000    90.00000    90.00000    90.00000  Step:           6  Bead:       0 becy{atomic_unit}  cell{atomic_unit}
       O -2.82010e-06 -4.07001e-01 -3.64400e-07
       H  1.41010e-06  2.03501e-01 -7.35217e-02
       H  1.41010e-06  2.03500e-01  7.35220e-02
3
# CELL(abcABC):    7.00000     7.00000     7.00000    90.00000    90.00000    90.00000  Step:           7  Bead:       0 becy{atomic_unit}  cell{atomic_unit}
       O -2.82010e-06 -4.07001e-01 -3.64400e-07
       H  1.41010e-06  2.03501e-01 -7.35217e-02
       H  1.41010e-06  2.03500e-01  7.35220e-02
3
# CELL(abcABC):    7.00000     7.00000     7.00000    90.00000    90.00000    90.00000  Step:           8  Bead:       0 becy{atomic_unit}  cell{atomic_unit}
       O -2.82010e-06 -4.07001e-01 -3.64400e-07
       H  1.41010e-06  2.03501e-01 -7.35217e-02
       H  1.41010e-06  2.03500e-01  7.35220e-02
3
# CELL(abcABC):    7.00000     7.00000     7.00000    90.00000    90.00000    90.00000  Step:           9  Bead:       0 becy{atomic_unit}  cell{atomic_unit}
       O -2.82010e-06 -4.07001e-01 -3.64400e-07
       H  1.41010e-06  2.03501e-01 -7.35217e-02
       H  1.41010e-06  2.03500e-01  7.35220e-02
3
# CELL(abcABC):    7.00000     7.00000     7.00000    90.00000    90.00000    90.00000  Step:          10  Bead:       0 becy{atomic_unit}  cell{atomic_unit}
       O -2.82010e-06 -4.07001e-01 -3.64400e-07
       H  1.41010e-06  2.03501e-01 -7.35217e-02
       H  1.41010e-06  2.03500e-01  7.35220e-02
