3
# CELL(abcABC):    7.00000     7.00000     7.00000    90.00000    90.00000    90.00000  Step:           0  Bead:       0 Eforces{atomic_unit}  cell{atomic_unit}
       O -1.41005e-07 -2.03500e-02 -1.82200e-08
       H  7.05050e-08  1.01750e-02 -3.67608e-03
       H  7.05050e-08  1.01750e-02  3.67610e-03
3
# CELL(abcABC):    7.00000     7.00000     7.00000    90.00000    90.00000    90.00000  Step:           1  Bead:       0 Eforces{atomic_unit}  cell{atomic_unit}
       O -1.05769e-07 -1.52648e-02 -1.36670e-08
       H  5.28866e-08  7.63241e-03 -2.75747e-03
       H  5.28866e-08  7.63238e-03  2.75748e-03
3
# CELL(abcABC):    7.00000     7.00000     7.00000    90.00000    90.00000    90.00000  Step:           2  Bead:       0 Eforces{atomic_unit}  cell{atomic_unit}
       O -1.76726e-08 -2.55054e-03 -2.28357e-09
       H  8.83662e-09  1.27527e-03 -4.60736e-04
       H  8.83662e-09  1.27527e-03  4.60738e-04
3
# CELL(abcABC):    7.00000     7.00000     7.00000    90.00000    90.00000    90.00000  Step:           3  Bead:       0 Eforces{atomic_unit}  cell{atomic_unit}
       O  7.92566e-08  1.14384e-02  1.02412e-08
       H -3.96297e-08 -5.71922e-03  2.06626e-03
       H -3.96297e-08 -5.71920e-03 -2.06628e-03
3
# CELL(abcABC):    7.00000     7.00000     7.00000    90.00000    90.00000    90.00000  Step:           4  Bead:       0 Eforces{atomic_unit}  cell{atomic_unit}
       O  1.36575e-07  1.97107e-02  1.76476e-08
       H -6.82900e-08 -9.85538e-03  3.56059e-03
       H -6.82900e-08 -9.85533e-03 -3.56061e-03
3
# CELL(abcABC):    7.00000     7.00000     7.00000    90.00000    90.00000    90.00000  Step:           5  Bead:       0 Eforces{atomic_unit}  cell{atomic_unit}
       O  1.25636e-07  1.81320e-02  1.62341e-08
       H -6.28204e-08 -9.06603e-03  3.27541e-03
       H -6.28204e-08 -9.06599e-03 -3.27543e-03
3
# CELL(abcABC):    7.00000     7.00000     7.00000    90.00000    90.00000    90.00000  Step:           6  Bead:       0 Eforces{atomic_unit}  cell{atomic_unit}
       O  5.19074e-08  7.49135e-03  6.70723e-09
       H -2.59546e-08 -3.74569e-03  1.35326e-03
       H -2.59546e-08 -3.74567e-03 -1.35326e-03
3
# CELL(abcABC):    7.00000     7.00000     7.00000    90.00000    90.00000    90.00000  Step:           7  Bead:       0 Eforces{atomic_unit}  cell{atomic_unit}
       O -4.77637e-08 -6.89333e-03 -6.17180e-09
       H  2.38827e-08  3.44667e-03 -1.24523e-03
       H  2.38827e-08  3.44665e-03  1.24523e-03
3
# CELL(abcABC):    7.00000     7.00000     7.00000    90.00000    90.00000    90.00000  Step:           8  Bead:       0 Eforces{atomic_unit}  cell{atomic_unit}
       O -1.23564e-07 -1.78329e-02 -1.59663e-08
       H  6.17840e-08  8.91646e-03 -3.22138e-03
       H  6.17840e-08  8.91642e-03  3.22139e-03
3
# CELL(abcABC):    7.00000     7.00000     7.00000    90.00000    90.00000    90.00000  Step:           9  Bead:       0 Eforces{atomic_unit}  cell{atomic_unit}
       O -1.37609e-07 -1.98599e-02 -1.77812e-08
       H  6.88070e-08  9.93000e-03 -3.58755e-03
       H  6.88070e-08  9.92995e-03  3.58757e-03
3
# CELL(abcABC):    7.00000     7.00000     7.00000    90.00000    90.00000    90.00000  Step:          10  Bead:       0 Eforces{atomic_unit}  cell{atomic_unit}
       O -8.28807e-08 -1.19615e-02 -1.07095e-08
       H  4.14418e-08  5.98074e-03 -2.16075e-03
       H  4.14418e-08  5.98071e-03  2.16076e-03
