#Bead    Energy (eV)
0     -0.11866259790715851
1     -0.11691012681205774
2     -0.11342166079444242
3     -0.1082351949410836
4     -0.10141984639090063
5     -0.09308898239047224
6     -0.08341517679588735
7     -0.0726445585426023
8     -0.06110741669327686
9     -0.049221487325502286
10     -0.03748445701371601
11     -0.026453159043353814
12     -0.016708861462551
13     -0.008810819030011201
14     -0.0032433701350644724
15     -0.0003644451312916968
16     -0.0003644451319317277
17     -0.0032433701369415356
18     -0.008810819032999921
19     -0.016708861466452396
20     -0.026453159047914718
21     -0.03748445701864777
22     -0.04922148733051311
23     -0.06110741669809458
24     -0.07264455854700659
25     -0.0834151767997177
26     -0.09308898239364362
27     -0.10141984639339816
28     -0.10823519494296141
29     -0.11342166079580748
30     -0.11691012681305872
31     -0.11866259790797011
