/home/riccardo/MyCodes/ase/example_lammps/data_lammps000001axuDfQ (written by ASE) 

2 	 atoms 
2  atom types
0.0 1.0000000000  xlo xhi
0.0 2.0000000000  ylo yhi
0.0 3.0000000000  zlo zhi


Atoms 

     1   2 0E-10 0E-10 0E-10
     2   1 0E-10 0E-10 2.3608000000
