3
Properties=species:S:1:pos:R:3 energy=-76.0
O   0.000000   0.000000   0.000000
H   0.957200   0.000000   0.000000
H  -0.239987   0.927297   0.000000
