194
# CELL(abcABC):   23.46540    23.46540    23.46540    90.00000    90.00000    90.00000  Step:           0  Bead:       0 x_centroid{angstrom}  cell{atomic_unit}
       O  1.11322e+01  1.21542e+01 -4.08724e+00
       H  1.13718e+01  1.29747e+01 -4.51006e+00
       H  1.15417e+01  1.15344e+01 -4.67456e+00
       O  6.60611e+00 -3.91137e-01  1.26392e+01
       H  6.18213e+00 -4.37072e-01  1.34706e+01
       H  7.05915e+00  4.67461e-01  1.27410e+01
       O  2.05744e+01  1.20158e+01  4.98971e+00
       H  2.05116e+01  1.15716e+01  4.14952e+00
       H  1.97807e+01  1.25570e+01  5.08273e+00
       O  1.07355e+01 -1.99274e+00  2.39599e+00
       H  1.16772e+01 -2.13925e+00  2.51953e+00
       H  1.06807e+01 -1.29011e+00  1.70574e+00
       O  7.72371e+00 -2.39557e+00  2.99772e+00
       H  8.03351e+00 -2.62280e+00  2.02209e+00
       H  8.19122e+00 -3.06930e+00  3.52438e+00
       O  7.79697e+00  6.75903e+00  2.10570e+01
       H  7.40113e+00  6.24620e+00  2.17480e+01
       H  8.24239e+00  7.48469e+00  2.14515e+01
       O  1.06799e+01  3.70931e+00  8.47191e+00
       H  1.05010e+01  3.24499e+00  9.25315e+00
       H  9.82304e+00  3.87004e+00  8.04180e+00
       O  4.99852e+00  9.14514e+00  1.56764e+01
       H  4.68193e+00  8.71732e+00  1.48745e+01
       H  5.92253e+00  9.34241e+00  1.55308e+01
       O  4.25640e-01  1.01148e+01 -5.31731e+00
       H  8.15510e-02  1.04994e+01 -6.11864e+00
       H  1.25502e+00  9.69952e+00 -5.61527e+00
       O -5.46588e+00  5.59414e+00  1.09005e+01
       H -4.65592e+00  5.75257e+00  1.13493e+01
       H -5.70651e+00  4.66966e+00  1.08138e+01
       O  7.27048e+00  1.47733e+01  2.51097e-01
       H  6.42793e+00  1.52995e+01  3.18497e-01
       H  7.74264e+00  1.51231e+01  1.03556e+00
       O -4.05027e-01  1.90061e+00  6.81443e+00
       H -9.49840e-01  2.51303e+00  7.26567e+00
       H -9.66083e-01  1.57794e+00  6.09410e+00
       O  1.40699e+01  3.78632e+00  4.33529e+00
       H  1.33217e+01  4.08365e+00  3.76915e+00
       H  1.47732e+01  4.37709e+00  4.00824e+00
       O  1.05758e+01  2.31951e+00  1.10971e+01
       H  1.02924e+01  2.92808e+00  1.18070e+01
       H  9.74198e+00  2.20287e+00  1.05718e+01
       O  3.58123e+00  4.10638e+00  1.03578e+00
       H  4.08526e+00  3.80122e+00  2.62883e-01
       H  2.91834e+00  3.43445e+00  1.27493e+00
       O  4.00575e+00 -5.86000e-01  8.21546e+00
       H  3.35222e+00 -1.48325e-01  7.73519e+00
       H  4.09724e+00 -1.42697e-01  9.10492e+00
       O  4.77581e+00  3.27196e+00 -1.14714e+00
       H  4.26782e+00  3.83733e+00 -1.78454e+00
       H  4.66477e+00  2.40656e+00 -1.46295e+00
       O  4.57547e+00  4.73373e-01  1.08339e+01
       H  3.74706e+00  2.49574e-01  1.13123e+01
       H  5.24820e+00 -6.36163e-02  1.13218e+01
       O  1.83745e+00  1.19136e+01  3.97494e+00
       H  1.08175e+00  1.22963e+01  3.56432e+00
       H  1.79833e+00  1.22864e+01  4.87093e+00
       O  1.15192e+01 -1.69573e+00 -1.52415e+00
       H  1.24623e+01 -1.95790e+00 -1.32689e+00
       H  1.17032e+01 -1.02654e+00 -2.14169e+00
       O  8.50463e+00  3.34968e+00  2.44535e+00
       H  8.26768e+00  4.21359e+00  2.81432e+00
       H  9.36953e+00  3.43525e+00  1.95685e+00
       O  1.45749e+01  1.31604e+01  6.63400e+00
       H  1.36853e+01  1.34703e+01  6.73869e+00
       H  1.51160e+01  1.38653e+01  6.93559e+00
       O  9.95377e+00  1.87460e+00  4.51494e+00
       H  9.42956e+00  1.14440e+00  4.91867e+00
       H  9.23588e+00  2.28581e+00  3.90687e+00
       O  1.48991e+00  9.99090e+00  1.18826e+01
       H  1.87417e+00  1.08761e+01  1.20328e+01
       H  2.25084e+00  9.39367e+00  1.20392e+01
       O  1.46646e+01  4.99760e+00  6.85836e+00
       H  1.52148e+01  5.63403e+00  6.41738e+00
       H  1.43914e+01  4.35881e+00  6.15168e+00
       O  6.02191e+00  4.68737e+00  1.73214e+01
       H  5.97119e+00  5.52128e+00  1.78412e+01
       H  5.28862e+00  4.79624e+00  1.66733e+01
       O  4.64656e+00  1.17461e+01  2.30112e+00
       H  3.92882e+00  1.22291e+01  2.74984e+00
       H  4.80285e+00  1.08792e+01  2.67486e+00
       O  5.96628e+00  8.06362e+00  1.19515e+01
       H  6.05665e+00  7.15642e+00  1.16767e+01
       H  5.86892e+00  8.51698e+00  1.11074e+01
       O  8.20555e+00  1.42081e+01  9.63346e+00
       H  8.28120e+00  1.32638e+01  9.26683e+00
       H  7.49320e+00  1.41771e+01  1.02306e+01
       O  4.27987e+00  6.96138e+00  6.74741e+00
       H  4.03309e+00  7.83690e+00  6.41076e+00
       H  3.97302e+00  6.95123e+00  7.67313e+00
       O  6.80428e-01  3.91922e+00  1.14303e+01
       H  1.75922e-01  3.13553e+00  1.11242e+01
       H  1.45777e+00  3.86183e+00  1.09232e+01
       O  1.20376e-01  8.22713e+00  9.41159e+00
       H -1.57423e-01  9.00214e+00  8.97148e+00
       H -1.89571e-01  7.55957e+00  8.76658e+00
       O  3.55653e+00  2.86695e+00  2.00682e+01
       H  4.52568e+00  2.86235e+00  2.00526e+01
       H  3.27504e+00  3.64201e+00  1.95676e+01
       O  8.22551e+00  9.61852e+00  3.76258e-01
       H  8.16098e+00  1.05711e+01  2.06343e-01
       H  7.48243e+00  9.20060e+00 -3.04053e-02
       O  6.82186e+00  1.07232e+01  6.95600e+00
       H  6.06851e+00  1.13003e+01  7.03559e+00
       H  7.16677e+00  1.09654e+01  6.09213e+00
       O -1.66652e+00 -3.96872e-02  1.28037e+01
       H -1.73239e+00  7.05375e-01  1.22360e+01
       H -1.32409e+00 -7.16948e-01  1.22086e+01
       O  2.80881e+00  1.23108e+01  2.45111e-01
       H  2.34128e+00  1.30073e+01  7.11356e-01
       H  3.46853e+00  1.20374e+01  8.75081e-01
       O  5.27561e+00  8.81995e+00 -3.08057e+00
       H  5.70046e+00  8.34385e+00 -3.78798e+00
       H  5.26850e+00  9.67238e+00 -3.41003e+00
       O  3.13910e+00  7.05648e+00 -3.24057e+00
       H  2.54333e+00  7.77423e+00 -3.03778e+00
       H  3.88621e+00  7.38768e+00 -2.69456e+00
       O  8.28157e+00  5.90352e+00  3.50833e+00
       H  8.41867e+00  6.83459e+00  3.69852e+00
       H  7.62304e+00  5.59734e+00  4.09271e+00
       O  4.30357e+00  2.44260e+00  3.80790e+00
       H  3.52063e+00  2.67108e+00  4.30799e+00
       H  4.21127e+00  2.89339e+00  3.03441e+00
       O  8.39730e+00  1.15784e+01  8.94611e+00
       H  7.85904e+00  1.12289e+01  8.23671e+00
       H  9.35099e+00  1.14716e+01  8.60568e+00
       O  3.49615e+00 -4.00098e+00  3.95081e-01
       H  4.40892e+00 -4.21955e+00  1.98686e-01
       H  3.06119e+00 -4.84372e+00  5.27909e-01
       O  6.00626e+00  9.50017e-01  5.31425e+00
       H  5.53199e+00  1.34578e+00  4.55241e+00
       H  6.01955e+00  1.65139e+00  5.95683e+00
       O  1.10613e+01 -1.09164e+00  5.08565e+00
       H  1.08661e+01 -1.23070e+00  4.17533e+00
       H  1.02746e+01 -1.30902e+00  5.65719e+00
       O  3.86240e+00  5.50076e+00  3.48931e+00
       H  3.32080e+00  6.31579e+00  3.58661e+00
       H  3.83079e+00  5.25866e+00  2.60250e+00
       O  1.18534e+01  1.32857e+01  1.52158e+01
       H  1.12768e+01  1.36114e+01  1.58930e+01
       H  1.13606e+01  1.28247e+01  1.44827e+01
       O  9.20050e+00  6.86986e+00  1.21228e+01
       H  8.96306e+00  7.78090e+00  1.20984e+01
       H  1.01080e+01  6.76421e+00  1.17690e+01
       O -1.86472e+00  1.66030e+01  1.31845e+01
       H -2.42953e+00  1.73805e+01  1.29675e+01
       H -1.05640e+00  1.67959e+01  1.36799e+01
       O  9.59070e-01 -2.72621e+00  2.30230e+00
       H  1.57294e+00 -2.10695e+00  2.68596e+00
       H  1.33531e+00 -2.86275e+00  1.44532e+00
       O  8.36147e+00  1.70634e+01  6.91353e+00
       H  8.08933e+00  1.78802e+01  7.39466e+00
       H  8.66749e+00  1.73660e+01  6.09138e+00
       O  1.21390e+01  6.66599e+00  1.73617e+01
       H  1.24464e+01  6.41641e+00  1.82136e+01
       H  1.12423e+01  6.91358e+00  1.75782e+01
       O  2.87980e+00  9.36162e+00  6.16448e+00
       H  2.58667e+00  9.04063e+00  5.27769e+00
       H  3.20852e+00  1.02653e+01  6.10914e+00
       O -3.16579e+00  9.03439e+00 -2.93619e+00
       H -2.54273e+00  9.07078e+00 -2.19622e+00
       H -3.75447e+00  9.79399e+00 -2.88439e+00
       O  1.45185e+01  7.67027e+00  3.97922e+00
       H  1.40537e+01  8.35442e+00  3.51125e+00
       H  1.37753e+01  7.22075e+00  4.36794e+00
       O  1.20074e+01  5.99811e+00  7.73485e+00
       H  1.28724e+01  5.64798e+00  7.70561e+00
       H  1.14960e+01  5.15055e+00  7.85068e+00
       O -7.08174e-01 -6.07197e+00 -9.82025e-01
       H -2.13291e-01 -6.93428e+00 -1.22249e+00
       H -3.36762e-01 -5.41959e+00 -1.59335e+00
       O -2.29355e-01  4.98362e+00  1.51523e+01
       H -4.64379e-01  5.56403e+00  1.58562e+01
       H  4.43974e-01  5.46063e+00  1.46604e+01
       O  1.17559e+00  2.41150e+00  1.26676e+00
       H  4.31402e-01  1.98878e+00  1.76462e+00
       H  7.29173e-01  3.12001e+00  7.99269e-01
       O  2.88555e+00  1.69247e+01  9.88394e+00
       H  2.97513e+00  1.78019e+01  9.51329e+00
       H  3.00426e+00  1.63617e+01  9.12570e+00
       O  9.44756e+00  9.67754e+00  6.94397e+00
       H  8.47199e+00  9.58963e+00  6.80617e+00
       H  9.57029e+00  9.41170e+00  7.85995e+00
       O  1.28990e+00  6.32542e+00  9.56568e-01
       H  1.75159e+00  5.60183e+00  5.95134e-01
       H  5.71138e-01  6.50871e+00  4.11501e-01
       O  6.46016e+00  1.50955e+01  7.61720e+00
       H  6.85809e+00  1.57660e+01  7.05997e+00
       H  7.13809e+00  1.48436e+01  8.22718e+00
       O  9.64153e+00  8.44002e+00  4.15199e+00
       H  1.00889e+01  8.79714e+00  3.38439e+00
       H  1.00272e+01  9.09105e+00  4.76672e+00
       L  6.86465e+00 -7.11010e-02 -7.75814e-01
       L  3.41494e-01 -1.67194e+01 -1.56274e+00