5
# CELL(abcABC):   23.46540    23.46540    23.46540    90.00000    90.00000    90.00000  Step:           0  Bead:       0 x_centroid{angstrom}  cell{atomic_unit}
       O  1.11322e+01  1.21542e+01 -4.08724e+00
       H  1.13718e+01  1.29747e+01 -4.51006e+00
       H  1.15417e+01  1.15344e+01 -4.67456e+00
       L  6.86465e+00 -7.11010e-02 -7.75814e-01
       L  3.41494e-01 -1.67194e+01 -1.56274e+00