194
# CELL(abcABC):   23.46473    23.46473    23.46473    90.00000    90.00000    90.00000  Step:           0  Bead:       0 x_centroid{angstrom}  cell{atomic_unit}
       O  1.11322e+01  1.21542e+01 -4.08724e+00
       H  1.13718e+01  1.29747e+01 -4.51006e+00
       H  1.15417e+01  1.15344e+01 -4.67456e+00
       O  6.60611e+00 -3.91137e-01  1.26392e+01
       H  6.18213e+00 -4.37072e-01  1.34706e+01
       H  7.05915e+00  4.67461e-01  1.27410e+01
       O  2.05744e+01  1.20158e+01  4.98971e+00
       H  2.05116e+01  1.15716e+01  4.14952e+00
       H  1.97807e+01  1.25570e+01  5.08273e+00
       O  1.07355e+01 -1.99274e+00  2.39599e+00
       H  1.16772e+01 -2.13925e+00  2.51953e+00
       H  1.06807e+01 -1.29011e+00  1.70574e+00
       O  7.72371e+00 -2.39557e+00  2.99772e+00
       H  8.03351e+00 -2.62280e+00  2.02209e+00
       H  8.19122e+00 -3.06930e+00  3.52438e+00
       O  7.79697e+00  6.75903e+00  2.10570e+01
       H  7.40113e+00  6.24620e+00  2.17480e+01
       H  8.24239e+00  7.48469e+00  2.14515e+01
       O  1.06799e+01  3.70931e+00  8.47191e+00
       H  1.05010e+01  3.24499e+00  9.25315e+00
       H  9.82304e+00  3.87004e+00  8.04180e+00
       O  4.99852e+00  9.14514e+00  1.56764e+01
       H  4.68193e+00  8.71732e+00  1.48745e+01
       H  5.92253e+00  9.34241e+00  1.55308e+01
       O  4.25640e-01  1.01148e+01 -5.31731e+00
       H  8.15510e-02  1.04994e+01 -6.11864e+00
       H  1.25502e+00  9.69952e+00 -5.61527e+00
       O -5.46588e+00  5.59414e+00  1.09005e+01
       H -4.65592e+00  5.75257e+00  1.13493e+01
       H -5.70651e+00  4.66966e+00  1.08138e+01
       O  7.27048e+00  1.47733e+01  2.51097e-01
       H  6.42793e+00  1.52995e+01  3.18497e-01
       H  7.74264e+00  1.51231e+01  1.03556e+00
       O -4.05027e-01  1.90061e+00  6.81443e+00
       H -9.49840e-01  2.51303e+00  7.26567e+00
       H -9.66083e-01  1.57794e+00  6.09410e+00
       O  1.40699e+01  3.78632e+00  4.33529e+00
       H  1.33217e+01  4.08365e+00  3.76915e+00
       H  1.47732e+01  4.37709e+00  4.00824e+00
       O  1.05758e+01  2.31951e+00  1.10971e+01
       H  1.02924e+01  2.92808e+00  1.18070e+01
       H  9.74198e+00  2.20287e+00  1.05718e+01
       O  3.58123e+00  4.10638e+00  1.03578e+00
       H  4.08526e+00  3.80122e+00  2.62883e-01
       H  2.91834e+00  3.43445e+00  1.27493e+00
       O  4.00575e+00 -5.86000e-01  8.21546e+00
       H  3.35222e+00 -1.48325e-01  7.73519e+00
       H  4.09724e+00 -1.42697e-01  9.10492e+00
       O  4.77581e+00  3.27196e+00 -1.14714e+00
       H  4.26782e+00  3.83733e+00 -1.78454e+00
       H  4.66477e+00  2.40656e+00 -1.46295e+00
       O  4.57547e+00  4.73373e-01  1.08339e+01
       H  3.74706e+00  2.49574e-01  1.13123e+01
       H  5.24820e+00 -6.36163e-02  1.13218e+01
       O  1.83745e+00  1.19136e+01  3.97494e+00
       H  1.08175e+00  1.22963e+01  3.56432e+00
       H  1.79833e+00  1.22864e+01  4.87093e+00
       O  1.15192e+01 -1.69573e+00 -1.52415e+00
       H  1.24623e+01 -1.95790e+00 -1.32689e+00
       H  1.17032e+01 -1.02654e+00 -2.14169e+00
       O  8.50463e+00  3.34968e+00  2.44535e+00
       H  8.26768e+00  4.21359e+00  2.81432e+00
       H  9.36953e+00  3.43525e+00  1.95685e+00
       O  1.45749e+01  1.31604e+01  6.63400e+00
       H  1.36853e+01  1.34703e+01  6.73869e+00
       H  1.51160e+01  1.38653e+01  6.93559e+00
       O  9.95377e+00  1.87460e+00  4.51494e+00
       H  9.42956e+00  1.14440e+00  4.91867e+00
       H  9.23588e+00  2.28581e+00  3.90687e+00
       O  1.48991e+00  9.99090e+00  1.18826e+01
       H  1.87417e+00  1.08761e+01  1.20328e+01
       H  2.25084e+00  9.39367e+00  1.20392e+01
       O  1.46646e+01  4.99760e+00  6.85836e+00
       H  1.52148e+01  5.63403e+00  6.41738e+00
       H  1.43914e+01  4.35881e+00  6.15168e+00
       O  6.02191e+00  4.68737e+00  1.73214e+01
       H  5.97119e+00  5.52128e+00  1.78412e+01
       H  5.28862e+00  4.79624e+00  1.66733e+01
       O  4.64656e+00  1.17461e+01  2.30112e+00
       H  3.92882e+00  1.22291e+01  2.74984e+00
       H  4.80285e+00  1.08792e+01  2.67486e+00
       O  5.96628e+00  8.06362e+00  1.19515e+01
       H  6.05665e+00  7.15642e+00  1.16767e+01
       H  5.86892e+00  8.51698e+00  1.11074e+01
       O  8.20555e+00  1.42081e+01  9.63346e+00
       H  8.28120e+00  1.32638e+01  9.26683e+00
       H  7.49320e+00  1.41771e+01  1.02306e+01
       O  4.27987e+00  6.96138e+00  6.74741e+00
       H  4.03309e+00  7.83690e+00  6.41076e+00
       H  3.97302e+00  6.95123e+00  7.67313e+00
       O  6.80428e-01  3.91922e+00  1.14303e+01
       H  1.75922e-01  3.13553e+00  1.11242e+01
       H  1.45777e+00  3.86183e+00  1.09232e+01
       O  1.20376e-01  8.22713e+00  9.41159e+00
       H -1.57423e-01  9.00214e+00  8.97148e+00
       H -1.89571e-01  7.55957e+00  8.76658e+00
       O  3.55653e+00  2.86695e+00  2.00682e+01
       H  4.52568e+00  2.86235e+00  2.00526e+01
       H  3.27504e+00  3.64201e+00  1.95676e+01
       O  8.22551e+00  9.61852e+00  3.76258e-01
       H  8.16098e+00  1.05711e+01  2.06343e-01
       H  7.48243e+00  9.20060e+00 -3.04053e-02
       O  6.82186e+00  1.07232e+01  6.95600e+00
       H  6.06851e+00  1.13003e+01  7.03559e+00
       H  7.16677e+00  1.09654e+01  6.09213e+00
       O -1.66652e+00 -3.96872e-02  1.28037e+01
       H -1.73239e+00  7.05375e-01  1.22360e+01
       H -1.32409e+00 -7.16948e-01  1.22086e+01
       O  2.80881e+00  1.23108e+01  2.45111e-01
       H  2.34128e+00  1.30073e+01  7.11356e-01
       H  3.46853e+00  1.20374e+01  8.75081e-01
       O  5.27561e+00  8.81995e+00 -3.08057e+00
       H  5.70046e+00  8.34385e+00 -3.78798e+00
       H  5.26850e+00  9.67238e+00 -3.41003e+00
       O  3.13910e+00  7.05648e+00 -3.24057e+00
       H  2.54333e+00  7.77423e+00 -3.03778e+00
       H  3.88621e+00  7.38768e+00 -2.69456e+00
       O  8.28157e+00  5.90352e+00  3.50833e+00
       H  8.41867e+00  6.83459e+00  3.69852e+00
       H  7.62304e+00  5.59734e+00  4.09271e+00
       O  4.30357e+00  2.44260e+00  3.80790e+00
       H  3.52063e+00  2.67108e+00  4.30799e+00
       H  4.21127e+00  2.89339e+00  3.03441e+00
       O  8.39730e+00  1.15784e+01  8.94611e+00
       H  7.85904e+00  1.12289e+01  8.23671e+00
       H  9.35099e+00  1.14716e+01  8.60568e+00
       O  3.49615e+00 -4.00098e+00  3.95081e-01
       H  4.40892e+00 -4.21955e+00  1.98686e-01
       H  3.06119e+00 -4.84372e+00  5.27909e-01
       O  6.00626e+00  9.50017e-01  5.31425e+00
       H  5.53199e+00  1.34578e+00  4.55241e+00
       H  6.01955e+00  1.65139e+00  5.95683e+00
       O  1.10613e+01 -1.09164e+00  5.08565e+00
       H  1.08661e+01 -1.23070e+00  4.17533e+00
       H  1.02746e+01 -1.30902e+00  5.65719e+00
       O  3.86240e+00  5.50076e+00  3.48931e+00
       H  3.32080e+00  6.31579e+00  3.58661e+00
       H  3.83079e+00  5.25866e+00  2.60250e+00
       O  1.18534e+01  1.32857e+01  1.52158e+01
       H  1.12768e+01  1.36114e+01  1.58930e+01
       H  1.13606e+01  1.28247e+01  1.44827e+01
       O  9.20050e+00  6.86986e+00  1.21228e+01
       H  8.96306e+00  7.78090e+00  1.20984e+01
       H  1.01080e+01  6.76421e+00  1.17690e+01
       O -1.86472e+00  1.66030e+01  1.31845e+01
       H -2.42953e+00  1.73805e+01  1.29675e+01
       H -1.05640e+00  1.67959e+01  1.36799e+01
       O  9.59070e-01 -2.72621e+00  2.30230e+00
       H  1.57294e+00 -2.10695e+00  2.68596e+00
       H  1.33531e+00 -2.86275e+00  1.44532e+00
       O  8.36147e+00  1.70634e+01  6.91353e+00
       H  8.08933e+00  1.78802e+01  7.39466e+00
       H  8.66749e+00  1.73660e+01  6.09138e+00
       O  1.21390e+01  6.66599e+00  1.73617e+01
       H  1.24464e+01  6.41641e+00  1.82136e+01
       H  1.12423e+01  6.91358e+00  1.75782e+01
       O  2.87980e+00  9.36162e+00  6.16448e+00
       H  2.58667e+00  9.04063e+00  5.27769e+00
       H  3.20852e+00  1.02653e+01  6.10914e+00
       O -3.16579e+00  9.03439e+00 -2.93619e+00
       H -2.54273e+00  9.07078e+00 -2.19622e+00
       H -3.75447e+00  9.79399e+00 -2.88439e+00
       O  1.45185e+01  7.67027e+00  3.97922e+00
       H  1.40537e+01  8.35442e+00  3.51125e+00
       H  1.37753e+01  7.22075e+00  4.36794e+00
       O  1.20074e+01  5.99811e+00  7.73485e+00
       H  1.28724e+01  5.64798e+00  7.70561e+00
       H  1.14960e+01  5.15055e+00  7.85068e+00
       O -7.08174e-01 -6.07197e+00 -9.82025e-01
       H -2.13291e-01 -6.93428e+00 -1.22249e+00
       H -3.36762e-01 -5.41959e+00 -1.59335e+00
       O -2.29355e-01  4.98362e+00  1.51523e+01
       H -4.64379e-01  5.56403e+00  1.58562e+01
       H  4.43974e-01  5.46063e+00  1.46604e+01
       O  1.17559e+00  2.41150e+00  1.26676e+00
       H  4.31402e-01  1.98878e+00  1.76462e+00
       H  7.29173e-01  3.12001e+00  7.99269e-01
       O  2.88555e+00  1.69247e+01  9.88394e+00
       H  2.97513e+00  1.78019e+01  9.51329e+00
       H  3.00426e+00  1.63617e+01  9.12570e+00
       O  9.44756e+00  9.67754e+00  6.94397e+00
       H  8.47199e+00  9.58963e+00  6.80617e+00
       H  9.57029e+00  9.41170e+00  7.85995e+00
       O  1.28990e+00  6.32542e+00  9.56568e-01
       H  1.75159e+00  5.60183e+00  5.95134e-01
       H  5.71138e-01  6.50871e+00  4.11501e-01
       O  6.46016e+00  1.50955e+01  7.61720e+00
       H  6.85809e+00  1.57660e+01  7.05997e+00
       H  7.13809e+00  1.48436e+01  8.22718e+00
       O  9.64153e+00  8.44002e+00  4.15199e+00
       H  1.00889e+01  8.79714e+00  3.38439e+00
       H  1.00272e+01  9.09105e+00  4.76672e+00
       L  6.86465e+00 -7.11010e-02 -7.75814e-01
       L  3.41494e-01 -1.67194e+01 -1.56274e+00
194
# CELL(abcABC):   23.46473    23.46473    23.46473    90.00000    90.00000    90.00000  Step:           1  Bead:       0 x_centroid{angstrom}  cell{atomic_unit}
       O  1.11309e+01  1.21530e+01 -4.08985e+00
       H  1.13734e+01  1.29852e+01 -4.52342e+00
       H  1.15308e+01  1.15304e+01 -4.68059e+00
       O  6.60549e+00 -3.92607e-01  1.26372e+01
       H  6.17752e+00 -4.37668e-01  1.34816e+01
       H  7.06698e+00  4.68439e-01  1.27469e+01
       O  2.05759e+01  1.20116e+01  4.98729e+00
       H  2.05115e+01  1.15728e+01  4.14734e+00
       H  1.97754e+01  1.25535e+01  5.07858e+00
       O  1.07375e+01 -1.99144e+00  2.39449e+00
       H  1.16760e+01 -2.12643e+00  2.51035e+00
       H  1.06787e+01 -1.28867e+00  1.70652e+00
       O  7.72371e+00 -2.39224e+00  2.99888e+00
       H  8.03307e+00 -2.62257e+00  2.00981e+00
       H  8.18795e+00 -3.06705e+00  3.51969e+00
       O  7.80013e+00  6.76009e+00  2.10587e+01
       H  7.41345e+00  6.26077e+00  2.17602e+01
       H  8.22938e+00  7.48213e+00  2.14615e+01
       O  1.06835e+01  3.71152e+00  8.46962e+00
       H  1.05119e+01  3.24747e+00  9.25829e+00
       H  9.81898e+00  3.86856e+00  8.05051e+00
       O  4.99727e+00  9.14346e+00  1.56733e+01
       H  4.67274e+00  8.72111e+00  1.48754e+01
       H  5.91966e+00  9.35117e+00  1.55225e+01
       O  4.22024e-01  1.01152e+01 -5.31944e+00
       H  8.14652e-02  1.04901e+01 -6.11376e+00
       H  1.26108e+00  9.68990e+00 -5.61937e+00
       O -5.46565e+00  5.59341e+00  1.09010e+01
       H -4.64698e+00  5.75383e+00  1.13488e+01
       H -5.70187e+00  4.67010e+00  1.08110e+01
       O  7.27299e+00  1.47723e+01  2.51170e-01
       H  6.42846e+00  1.52948e+01  3.22680e-01
       H  7.73716e+00  1.50995e+01  1.02357e+00
       O -4.02878e-01  1.90159e+00  6.81273e+00
       H -9.41148e-01  2.51293e+00  7.26728e+00
       H -9.63656e-01  1.57223e+00  6.09659e+00
       O  1.40722e+01  3.78517e+00  4.33826e+00
       H  1.33224e+01  4.08403e+00  3.77303e+00
       H  1.47822e+01  4.36424e+00  4.00957e+00
       O  1.05748e+01  2.32094e+00  1.10961e+01
       H  1.03003e+01  2.92563e+00  1.18096e+01
       H  9.74053e+00  2.21341e+00  1.05745e+01
       O  3.57799e+00  4.10683e+00  1.03929e+00
       H  4.07105e+00  3.80310e+00  2.50127e-01
       H  2.92320e+00  3.43764e+00  1.27915e+00
       O  4.00545e+00 -5.85553e-01  8.21507e+00
       H  3.33820e+00 -1.54452e-01  7.73112e+00
       H  4.08850e+00 -1.39096e-01  9.10452e+00
       O  4.77605e+00  3.27217e+00 -1.14521e+00
       H  4.26944e+00  3.83929e+00 -1.77285e+00
       H  4.66181e+00  2.40825e+00 -1.46922e+00
       O  4.57505e+00  4.69557e-01  1.08376e+01
       H  3.75209e+00  2.48249e-01  1.13284e+01
       H  5.25033e+00 -5.89537e-02  1.13230e+01
       O  1.83877e+00  1.19130e+01  3.97694e+00
       H  1.07663e+00  1.22972e+01  3.57218e+00
       H  1.78698e+00  1.22919e+01  4.86941e+00
       O  1.15193e+01 -1.69393e+00 -1.52519e+00
       H  1.24583e+01 -1.96360e+00 -1.32529e+00
       H  1.16979e+01 -1.03213e+00 -2.14123e+00
       O  8.50746e+00  3.34707e+00  2.44368e+00
       H  8.26821e+00  4.21037e+00  2.81686e+00
       H  9.36433e+00  3.43667e+00  1.95819e+00
       O  1.45698e+01  1.31574e+01  6.63381e+00
       H  1.36796e+01  1.34691e+01  6.74024e+00
       H  1.51259e+01  1.38523e+01  6.94918e+00
       O  9.95624e+00  1.87519e+00  4.51415e+00
       H  9.42572e+00  1.14785e+00  4.92534e+00
       H  9.23976e+00  2.29265e+00  3.89880e+00
       O  1.48967e+00  9.98972e+00  1.18847e+01
       H  1.85954e+00  1.08731e+01  1.20250e+01
       H  2.25847e+00  9.38021e+00  1.20347e+01
       O  1.46632e+01  4.99962e+00  6.85927e+00
       H  1.52156e+01  5.64944e+00  6.40957e+00
       H  1.43892e+01  4.35201e+00  6.15842e+00
       O  6.02402e+00  4.68633e+00  1.73199e+01
       H  5.96135e+00  5.50758e+00  1.78367e+01
       H  5.29249e+00  4.79075e+00  1.66862e+01
       O  4.64713e+00  1.17447e+01  2.30269e+00
       H  3.92430e+00  1.22207e+01  2.75936e+00
       H  4.81283e+00  1.08752e+01  2.67224e+00
       O  5.96635e+00  8.05989e+00  1.19528e+01
       H  6.05026e+00  7.15437e+00  1.16772e+01
       H  5.87336e+00  8.51093e+00  1.11036e+01
       O  8.20435e+00  1.42043e+01  9.62842e+00
       H  8.28838e+00  1.32657e+01  9.26292e+00
       H  7.49615e+00  1.41648e+01  1.02279e+01
       O  4.27886e+00  6.96037e+00  6.74824e+00
       H  4.02728e+00  7.83383e+00  6.40748e+00
       H  3.96448e+00  6.94162e+00  7.67159e+00
       O  6.81999e-01  3.91628e+00  1.14327e+01
       H  1.70103e-01  3.12924e+00  1.11197e+01
       H  1.44506e+00  3.87216e+00  1.09358e+01
       O  1.22306e-01  8.23175e+00  9.41015e+00
       H -1.65808e-01  9.01165e+00  8.95840e+00
       H -1.98292e-01  7.56773e+00  8.78441e+00
       O  3.55769e+00  2.86664e+00  2.00719e+01
       H  4.51235e+00  2.87059e+00  2.00525e+01
       H  3.27216e+00  3.64890e+00  1.95502e+01
       O  8.22285e+00  9.61765e+00  3.75924e-01
       H  8.16456e+00  1.05772e+01  1.97852e-01
       H  7.47912e+00  9.19492e+00 -1.20360e-02
       O  6.82096e+00  1.07218e+01  6.95523e+00
       H  6.07251e+00  1.12948e+01  7.02304e+00
       H  7.15705e+00  1.09689e+01  6.08548e+00
       O -1.66868e+00 -3.92893e-02  1.28033e+01
       H -1.73530e+00  6.90553e-01  1.22355e+01
       H -1.31923e+00 -7.29692e-01  1.22168e+01
       O  2.81075e+00  1.23083e+01  2.40563e-01
       H  2.34104e+00  1.30117e+01  7.00811e-01
       H  3.46537e+00  1.20419e+01  8.78100e-01
       O  5.27736e+00  8.82350e+00 -3.07992e+00
       H  5.69601e+00  8.34473e+00 -3.79150e+00
       H  5.28413e+00  9.66359e+00 -3.41961e+00
       O  3.14121e+00  7.05601e+00 -3.24049e+00
       H  2.54800e+00  7.76272e+00 -3.03667e+00
       H  3.89536e+00  7.38481e+00 -2.68245e+00
       O  8.28350e+00  5.90263e+00  3.50660e+00
       H  8.39740e+00  6.83349e+00  3.71055e+00
       H  7.62532e+00  5.60824e+00  4.09486e+00
       O  4.30540e+00  2.44035e+00  3.80889e+00
       H  3.51361e+00  2.67174e+00  4.30592e+00
       H  4.20259e+00  2.89357e+00  3.02431e+00
       O  8.40038e+00  1.15798e+01  8.94454e+00
       H  7.86065e+00  1.12313e+01  8.25109e+00
       H  9.34293e+00  1.14759e+01  8.60979e+00
       O  3.49508e+00 -3.99961e+00  3.97663e-01
       H  4.41471e+00 -4.20551e+00  2.11601e-01
       H  3.06698e+00 -4.84341e+00  5.29757e-01
       O  6.00763e+00  9.49611e-01  5.31442e+00
       H  5.53200e+00  1.35147e+00  4.54964e+00
       H  6.02270e+00  1.65048e+00  5.96342e+00
       O  1.10587e+01 -1.08937e+00  5.08708e+00
       H  1.08734e+01 -1.22969e+00  4.17055e+00
       H  1.02654e+01 -1.30864e+00  5.65183e+00
       O  3.85896e+00  5.50231e+00  3.48738e+00
       H  3.31104e+00  6.31434e+00  3.58824e+00
       H  3.82156e+00  5.26446e+00  2.59571e+00
       O  1.18543e+01  1.32877e+01  1.52147e+01
       H  1.12720e+01  1.35985e+01  1.58862e+01
       H  1.13517e+01  1.28220e+01  1.44899e+01
       O  9.19946e+00  6.86858e+00  1.21237e+01
       H  8.97520e+00  7.77129e+00  1.20897e+01
       H  1.01172e+01  6.76345e+00  1.17738e+01
       O -1.86526e+00  1.66040e+01  1.31837e+01
       H -2.43284e+00  1.73818e+01  1.29651e+01
       H -1.05374e+00  1.68104e+01  1.36793e+01
       O  9.56197e-01 -2.72471e+00  2.30328e+00
       H  1.58703e+00 -2.10442e+00  2.70132e+00
       H  1.35344e+00 -2.86047e+00  1.44409e+00
       O  8.36332e+00  1.70645e+01  6.90915e+00
       H  8.09583e+00  1.78810e+01  7.38926e+00
       H  8.66851e+00  1.73735e+01  6.09091e+00
       O  1.21390e+01  6.66821e+00  1.73615e+01
       H  1.24374e+01  6.41423e+00  1.82176e+01
       H  1.12455e+01  6.90282e+00  1.75697e+01
       O  2.88134e+00  9.36669e+00  6.16434e+00
       H  2.60313e+00  9.04755e+00  5.27981e+00
       H  3.19738e+00  1.02619e+01  6.10399e+00
       O -3.16773e+00  9.03982e+00 -2.93469e+00
       H -2.55152e+00  9.06662e+00 -2.19109e+00
       H -3.75596e+00  9.79483e+00 -2.89522e+00
       O  1.45182e+01  7.66816e+00  3.97644e+00
       H  1.40437e+01  8.35336e+00  3.52184e+00
       H  1.37816e+01  7.23291e+00  4.36692e+00
       O  1.20075e+01  5.99588e+00  7.73369e+00
       H  1.28775e+01  5.64685e+00  7.71258e+00
       H  1.14940e+01  5.16568e+00  7.86119e+00
       O -7.05862e-01 -6.06514e+00 -9.82432e-01
       H -2.26819e-01 -6.92273e+00 -1.22758e+00
       H -3.37271e-01 -5.40333e+00 -1.58337e+00
       O -2.27503e-01  4.98191e+00  1.51560e+01
       H -4.69203e-01  5.56185e+00  1.58605e+01
       H  4.44771e-01  5.46307e+00  1.46616e+01
       O  1.17455e+00  2.41106e+00  1.26775e+00
       H  4.32895e-01  2.00192e+00  1.76718e+00
       H  7.30264e-01  3.12825e+00  7.92995e-01
       O  2.88397e+00  1.69238e+01  9.88501e+00
       H  2.98279e+00  1.78111e+01  9.52540e+00
       H  2.99545e+00  1.63723e+01  9.12118e+00
       O  9.44665e+00  9.67734e+00  6.94363e+00
       H  8.46970e+00  9.57995e+00  6.80128e+00
       H  9.56190e+00  9.41545e+00  7.85538e+00
       O  1.28946e+00  6.32361e+00  9.58826e-01
       H  1.75094e+00  5.59829e+00  5.97171e-01
       H  5.72669e-01  6.52241e+00  4.18590e-01
       O  6.46168e+00  1.50938e+01  7.61693e+00
       H  6.85462e+00  1.57701e+01  7.05960e+00
       H  7.15332e+00  1.48369e+01  8.22561e+00
       O  9.63703e+00  8.43945e+00  4.15322e+00
       H  1.00839e+01  8.78093e+00  3.38706e+00
       H  1.00293e+01  9.09560e+00  4.77785e+00
       L  6.91950e+00 -4.67565e-01 -8.80904e-01
       L -2.32263e-01 -1.61768e+01 -6.31695e-01
194
# CELL(abcABC):   23.46473    23.46473    23.46473    90.00000    90.00000    90.00000  Step:           2  Bead:       0 x_centroid{angstrom}  cell{atomic_unit}
       O  1.11296e+01  1.21520e+01 -4.09251e+00
       H  1.13748e+01  1.29948e+01 -4.53580e+00
       H  1.15206e+01  1.15250e+01 -4.68636e+00
       O  6.60500e+00 -3.93894e-01  1.26352e+01
       H  6.17165e+00 -4.39245e-01  1.34934e+01
       H  7.07359e+00  4.67731e-01  1.27515e+01
       O  2.05775e+01  1.20074e+01  4.98491e+00
       H  2.05108e+01  1.15733e+01  4.14407e+00
       H  1.97692e+01  1.25505e+01  5.07419e+00
       O  1.07394e+01 -1.98995e+00  2.39293e+00
       H  1.16761e+01 -2.11454e+00  2.50035e+00
       H  1.06762e+01 -1.28998e+00  1.70890e+00
       O  7.72381e+00 -2.38911e+00  2.99968e+00
       H  8.03036e+00 -2.62027e+00  2.00358e+00
       H  8.18469e+00 -3.06360e+00  3.51454e+00
       O  7.80321e+00  6.76107e+00  2.10601e+01
       H  7.42518e+00  6.27449e+00  2.17747e+01
       H  8.21836e+00  7.48190e+00  2.14728e+01
       O  1.06870e+01  3.71380e+00  8.46710e+00
       H  1.05227e+01  3.24891e+00  9.26588e+00
       H  9.81583e+00  3.86707e+00  8.05979e+00
       O  4.99598e+00  9.14178e+00  1.56702e+01
       H  4.66388e+00  8.72537e+00  1.48773e+01
       H  5.91737e+00  9.35983e+00  1.55144e+01
       O  4.18535e-01  1.01154e+01 -5.32160e+00
       H  8.04258e-02  1.04812e+01 -6.11017e+00
       H  1.26543e+00  9.68171e+00 -5.62199e+00
       O -5.46564e+00  5.59270e+00  1.09015e+01
       H -4.63626e+00  5.75449e+00  1.13494e+01
       H -5.69607e+00  4.67077e+00  1.08092e+01
       O  7.27522e+00  1.47715e+01  2.51255e-01
       H  6.43268e+00  1.52870e+01  3.25523e-01
       H  7.73243e+00  1.50759e+01  1.01236e+00
       O -4.00709e-01  1.90233e+00  6.81088e+00
       H -9.33853e-01  2.51552e+00  7.27069e+00
       H -9.60366e-01  1.56755e+00  6.09941e+00
       O  1.40746e+01  3.78420e+00  4.34110e+00
       H  1.33243e+01  4.08308e+00  3.77858e+00
       H  1.47903e+01  4.35039e+00  4.01184e+00
       O  1.05736e+01  2.32243e+00  1.10950e+01
       H  1.03096e+01  2.92266e+00  1.18114e+01
       H  9.74102e+00  2.22300e+00  1.05789e+01
       O  3.57471e+00  4.10728e+00  1.04291e+00
       H  4.05568e+00  3.80468e+00  2.37866e-01
       H  2.92840e+00  3.44106e+00  1.28205e+00
       O  4.00539e+00 -5.85143e-01  8.21502e+00
       H  3.32148e+00 -1.58966e-01  7.72564e+00
       H  4.07948e+00 -1.37066e-01  9.10042e+00
       O  4.77637e+00  3.27266e+00 -1.14331e+00
       H  4.27119e+00  3.84006e+00 -1.75964e+00
       H  4.65857e+00  2.40597e+00 -1.47636e+00
       O  4.57468e+00  4.65613e-01  1.08413e+01
       H  3.75868e+00  2.47617e-01  1.13444e+01
       H  5.25125e+00 -5.22253e-02  1.13230e+01
       O  1.84011e+00  1.19125e+01  3.97905e+00
       H  1.07028e+00  1.22988e+01  3.57928e+00
       H  1.77672e+00  1.22967e+01  4.86657e+00
       O  1.15197e+01 -1.69231e+00 -1.52609e+00
       H  1.24512e+01 -1.97017e+00 -1.32318e+00
       H  1.16918e+01 -1.03478e+00 -2.14436e+00
       O  8.51039e+00  3.34439e+00  2.44199e+00
       H  8.27006e+00  4.20686e+00  2.81860e+00
       H  9.35714e+00  3.43934e+00  1.96098e+00
       O  1.45646e+01  1.31542e+01  6.63354e+00
       H  1.36729e+01  1.34689e+01  6.74213e+00
       H  1.51368e+01  1.38414e+01  6.96345e+00
       O  9.95823e+00  1.87575e+00  4.51323e+00
       H  9.42393e+00  1.15308e+00  4.93047e+00
       H  9.24892e+00  2.29777e+00  3.89416e+00
       O  1.48961e+00  9.98849e+00  1.18868e+01
       H  1.84499e+00  1.08694e+01  1.20175e+01
       H  2.26392e+00  9.36851e+00  1.20297e+01
       O  1.46617e+01  5.00153e+00  6.85995e+00
       H  1.52167e+01  5.66485e+00  6.40277e+00
       H  1.43870e+01  4.34764e+00  6.16657e+00
       O  6.02612e+00  4.68551e+00  1.73185e+01
       H  5.95110e+00  5.49144e+00  1.78314e+01
       H  5.29727e+00  4.78509e+00  1.67002e+01
       O  4.64760e+00  1.17435e+01  2.30419e+00
       H  3.92201e+00  1.22099e+01  2.76934e+00
       H  4.82157e+00  1.08711e+01  2.67094e+00
       O  5.96646e+00  8.05623e+00  1.19541e+01
       H  6.04483e+00  7.15114e+00  1.16779e+01
       H  5.87733e+00  8.50493e+00  1.11000e+01
       O  8.20333e+00  1.42003e+01  9.62315e+00
       H  8.29535e+00  1.32704e+01  9.26077e+00
       H  7.49707e+00  1.41522e+01  1.02276e+01
       O  4.27788e+00  6.95940e+00  6.74905e+00
       H  4.02132e+00  7.82974e+00  6.40502e+00
       H  3.95556e+00  6.93259e+00  7.66872e+00
       O  6.83107e-01  3.91314e+00  1.14353e+01
       H  1.65297e-01  3.12612e+00  1.11166e+01
       H  1.43798e+00  3.88320e+00  1.09448e+01
       O  1.24170e-01  8.23625e+00  9.40864e+00
       H -1.73495e-01  9.02225e+00  8.94555e+00
       H -2.06241e-01  7.57559e+00  8.80303e+00
       O  3.55884e+00  2.86637e+00  2.00756e+01
       H  4.49984e+00  2.87856e+00  2.00523e+01
       H  3.26957e+00  3.65482e+00  1.95346e+01
       O  8.22035e+00  9.61693e+00  3.75627e-01
       H  8.16732e+00  1.05810e+01  1.89400e-01
       H  7.47344e+00  9.18868e+00  5.79080e-03
       O  6.82003e+00  1.07204e+01  6.95442e+00
       H  6.07529e+00  1.12898e+01  7.01109e+00
       H  7.14800e+00  1.09729e+01  6.07934e+00
       O -1.67081e+00 -3.90588e-02  1.28031e+01
       H -1.73873e+00  6.78924e-01  1.22328e+01
       H -1.31481e+00 -7.42623e-01  1.22245e+01
       O  2.81252e+00  1.23059e+01  2.36097e-01
       H  2.34067e+00  1.30159e+01  6.89211e-01
       H  3.46349e+00  1.20457e+01  8.81607e-01
       O  5.27921e+00  8.82670e+00 -3.07915e+00
       H  5.69142e+00  8.34521e+00 -3.79464e+00
       H  5.29889e+00  9.66090e+00 -3.43113e+00
       O  3.14355e+00  7.05565e+00 -3.24015e+00
       H  2.55066e+00  7.75129e+00 -3.03663e+00
       H  3.90232e+00  7.38054e+00 -2.67347e+00
       O  8.28553e+00  5.90185e+00  3.50482e+00
       H  8.37687e+00  6.83133e+00  3.72204e+00
       H  7.62481e+00  5.61788e+00  4.09851e+00
       O  4.30712e+00  2.43798e+00  3.81012e+00
       H  3.50754e+00  2.67146e+00  4.30328e+00
       H  4.19395e+00  2.89595e+00  3.01008e+00
       O  8.40378e+00  1.15813e+01  8.94304e+00
       H  7.86069e+00  1.12334e+01  8.26324e+00
       H  9.33138e+00  1.14814e+01  8.61539e+00
       O  3.49394e+00 -3.99828e+00  4.00306e-01
       H  4.42124e+00 -4.19110e+00  2.23681e-01
       H  3.07232e+00 -4.84274e+00  5.31867e-01
       O  6.00887e+00  9.49301e-01  5.31449e+00
       H  5.53270e+00  1.35649e+00  4.54914e+00
       H  6.02611e+00  1.64929e+00  5.97042e+00
       O  1.10560e+01 -1.08715e+00  5.08880e+00
       H  1.08795e+01 -1.22889e+00  4.16456e+00
       H  1.02589e+01 -1.30754e+00  5.64354e+00
       O  3.85537e+00  5.50401e+00  3.48571e+00
       H  3.30271e+00  6.31159e+00  3.58965e+00
       H  3.81217e+00  5.26923e+00  2.58437e+00
       O  1.18554e+01  1.32895e+01  1.52134e+01
       H  1.12645e+01  1.35864e+01  1.58808e+01
       H  1.13440e+01  1.28219e+01  1.44998e+01
       O  9.19849e+00  6.86707e+00  1.21246e+01
       H  8.98731e+00  7.76439e+00  1.20815e+01
       H  1.01250e+01  6.76312e+00  1.17795e+01
       O -1.86596e+00  1.66049e+01  1.31828e+01
       H -2.43287e+00  1.73818e+01  1.29643e+01
       H -1.05350e+00  1.68267e+01  1.36791e+01
       O  9.53507e-01 -2.72313e+00  2.30433e+00
       H  1.59950e+00 -2.10239e+00  2.71694e+00
       H  1.37040e+00 -2.85845e+00  1.44230e+00
       O  8.36510e+00  1.70657e+01  6.90498e+00
       H  8.10315e+00  1.78800e+01  7.38356e+00
       H  8.67051e+00  1.73814e+01  6.08794e+00
       O  1.21389e+01  6.67044e+00  1.73613e+01
       H  1.24288e+01  6.41130e+00  1.82234e+01
       H  1.12482e+01  6.89274e+00  1.75603e+01
       O  2.88282e+00  9.37168e+00  6.16411e+00
       H  2.62090e+00  9.05528e+00  5.28367e+00
       H  3.18625e+00  1.02583e+01  6.09836e+00
       O -3.16964e+00  9.04511e+00 -2.93308e+00
       H -2.56114e+00  9.06359e+00 -2.18721e+00
       H -3.75677e+00  9.79687e+00 -2.90524e+00
       O  1.45180e+01  7.66610e+00  3.97365e+00
       H  1.40339e+01  8.35302e+00  3.53066e+00
       H  1.37860e+01  7.24369e+00  4.36710e+00
       O  1.20075e+01  5.99353e+00  7.73251e+00
       H  1.28853e+01  5.64543e+00  7.71950e+00
       H  1.14925e+01  5.18318e+00  7.87221e+00
       O -7.03321e-01 -6.05848e+00 -9.82982e-01
       H -2.42897e-01 -6.90778e+00 -1.23109e+00
       H -3.38169e-01 -5.38704e+00 -1.57332e+00
       O -2.25561e-01  4.98007e+00  1.51596e+01
       H -4.74548e-01  5.56092e+00  1.58664e+01
       H  4.45366e-01  5.46637e+00  1.46623e+01
       O  1.17336e+00  2.41062e+00  1.26879e+00
       H  4.36573e-01  2.01536e+00  1.76946e+00
       H  7.32761e-01  3.13510e+00  7.86360e-01
       O  2.88241e+00  1.69230e+01  9.88611e+00
       H  2.98990e+00  1.78212e+01  9.53776e+00
       H  2.98664e+00  1.63818e+01  9.11518e+00
       O  9.44552e+00  9.67714e+00  6.94309e+00
       H  8.47137e+00  9.57104e+00  6.79702e+00
       H  9.55379e+00  9.41854e+00  7.85169e+00
       O  1.28930e+00  6.32189e+00  9.61405e-01
       H  1.75114e+00  5.59265e+00  5.97531e-01
       H  5.69979e-01  6.53673e+00  4.21857e-01
       O  6.46313e+00  1.50921e+01  7.61660e+00
       H  6.85165e+00  1.57743e+01  7.05965e+00
       H  7.16865e+00  1.48301e+01  8.22423e+00
       O  9.63267e+00  8.43909e+00  4.15463e+00
       H  1.00788e+01  8.76433e+00  3.38789e+00
       H  1.00290e+01  9.09693e+00  4.78829e+00
       L  6.59851e+00 -8.11761e-01 -8.87518e-01
       L -7.80056e-01 -1.49576e+01  3.69967e-01
194
# CELL(abcABC):   23.46473    23.46473    23.46473    90.00000    90.00000    90.00000  Step:           3  Bead:       0 x_centroid{angstrom}  cell{atomic_unit}
       O  1.11283e+01  1.21511e+01 -4.09527e+00
       H  1.13756e+01  1.30025e+01 -4.54658e+00
       H  1.15111e+01  1.15182e+01 -4.69182e+00
       O  6.60463e+00 -3.94980e-01  1.26334e+01
       H  6.16522e+00 -4.41738e-01  1.35043e+01
       H  7.07875e+00  4.64964e-01  1.27545e+01
       O  2.05792e+01  1.20032e+01  4.98257e+00
       H  2.05098e+01  1.15729e+01  4.13961e+00
       H  1.97628e+01  1.25479e+01  5.06958e+00
       O  1.07413e+01 -1.98828e+00  2.39131e+00
       H  1.16778e+01 -2.10375e+00  2.48967e+00
       H  1.06732e+01 -1.29374e+00  1.71261e+00
       O  7.72399e+00 -2.38616e+00  3.00007e+00
       H  8.02535e+00 -2.61582e+00  2.00366e+00
       H  8.18170e+00 -3.05928e+00  3.50921e+00
       O  7.80620e+00  6.76197e+00  2.10612e+01
       H  7.43617e+00  6.28708e+00  2.17912e+01
       H  8.20958e+00  7.48443e+00  2.14852e+01
       O  1.06905e+01  3.71612e+00  8.46441e+00
       H  1.05336e+01  3.24977e+00  9.27509e+00
       H  9.81371e+00  3.86560e+00  8.06956e+00
       O  4.99469e+00  9.14013e+00  1.56669e+01
       H  4.65524e+00  8.72986e+00  1.48799e+01
       H  5.91546e+00  9.36825e+00  1.55064e+01
       O  4.15251e-01  1.01156e+01 -5.32373e+00
       H  7.80053e-02  1.04733e+01 -6.10888e+00
       H  1.26731e+00  9.67538e+00 -5.62285e+00
       O -5.46577e+00  5.59203e+00  1.09019e+01
       H -4.62474e+00  5.75441e+00  1.13507e+01