5
# CELL(abcABC):   23.46473    23.46473    23.46473    90.00000    90.00000    90.00000  Step:           0  Bead:       0 f_centroid{atomic_unit}  cell{atomic_unit}
       O  1.28246e-02  8.93652e-03 -2.02899e-02
       H -7.47133e-03 -5.01447e-03  1.18066e-02
       H -5.35324e-03 -3.92205e-03  8.48333e-03
       L -3.54914e-03  3.51530e-05  3.83570e-04
       L -1.68838e-04  8.21823e-03  7.72634e-04
5
# CELL(abcABC):   23.46473    23.46473    23.46473    90.00000    90.00000    90.00000  Step:           1  Bead:       0 f_centroid{atomic_unit}  cell{atomic_unit}
       O  1.53217e-02  2.07232e-02 -2.54320e-02
       H -1.04956e-02 -1.62307e-02  1.75470e-02
       H -4.82611e-03 -4.49256e-03  7.88501e-03
       L -3.29969e-03  1.45928e-04  5.25112e-04
       L -8.57206e-05  7.75402e-03  5.17603e-04
5
# CELL(abcABC):   23.46473    23.46473    23.46473    90.00000    90.00000    90.00000  Step:           2  Bead:       0 f_centroid{atomic_unit}  cell{atomic_unit}
       O  1.65239e-02  2.94678e-02 -2.84065e-02
       H -1.24487e-02 -2.42830e-02  2.15188e-02
       H -4.07522e-03 -5.18480e-03  6.88774e-03
       L -2.68088e-03  2.40416e-04  6.07957e-04
       L  6.96785e-06  6.42370e-03  2.04714e-04
5
# CELL(abcABC):   23.46473    23.46473    23.46473    90.00000    90.00000    90.00000  Step:           3  Bead:       0 f_centroid{atomic_unit}  cell{atomic_unit}
       O  1.65046e-02  3.48832e-02 -2.92059e-02
       H -1.33012e-02 -2.90115e-02  2.35830e-02
       H -3.20339e-03 -5.87165e-03  5.62294e-03
       L -1.76183e-03  3.08051e-04  6.22841e-04
       L  9.88682e-05  4.37628e-03 -1.31057e-04
5
# CELL(abcABC):   23.46473    23.46473    23.46473    90.00000    90.00000    90.00000  Step:           4  Bead:       0 f_centroid{atomic_unit}  cell{atomic_unit}
       O  1.54090e-02  3.68313e-02 -2.79683e-02
       H -1.30884e-02 -3.04296e-02  2.37170e-02
       H -2.32058e-03 -6.40172e-03  4.25133e-03
       L -6.45288e-04  3.41266e-04  5.68100e-04
       L  1.79711e-04  1.84082e-03 -4.52175e-04
5
# CELL(abcABC):   23.46473    23.46473    23.46473    90.00000    90.00000    90.00000  Step:           5  Bead:       0 f_centroid{atomic_unit}  cell{atomic_unit}
       O  1.33841e-02  3.51621e-02 -2.48585e-02
       H -1.18559e-02 -2.85442e-02  2.19176e-02
       H -1.52825e-03 -6.61784e-03  2.94084e-03
       L  5.43902e-04  3.36338e-04  4.49853e-04
       L  2.40462e-04 -8.99207e-04 -7.22745e-04
5
# CELL(abcABC):   23.46473    23.46473    23.46473    90.00000    90.00000    90.00000  Step:           6  Bead:       0 f_centroid{atomic_unit}  cell{atomic_unit}
       O  1.05515e-02  2.96993e-02 -2.00169e-02
       H -9.64836e-03 -2.33167e-02  1.81778e-02
       H -9.03188e-04 -6.38258e-03  1.83913e-03
       L  1.67274e-03  2.93810e-04  2.81316e-04
       L  2.74335e-04 -3.53755e-03 -9.12522e-04
5
# CELL(abcABC):   23.46473    23.46473    23.46473    90.00000    90.00000    90.00000  Step:           7  Bead:       0 f_centroid{atomic_unit}  cell{atomic_unit}
       O  7.02151e-03  2.03642e-02 -1.35821e-02
       H -6.53684e-03 -1.47574e-02  1.25355e-02
       H -4.84675e-04 -5.60683e-03  1.04655e-03
       L  2.61494e-03  2.18426e-04  8.13295e-05
       L  2.77547e-04 -5.77946e-03 -1.00029e-03
5
# CELL(abcABC):   23.46473    23.46473    23.46473    90.00000    90.00000    90.00000  Step:           8  Bead:       0 f_centroid{atomic_unit}  cell{atomic_unit}
       O  2.94992e-03  7.44021e-03 -5.79597e-03
       H -2.68087e-03 -3.16580e-03  5.19910e-03
       H -2.69053e-04 -4.27441e-03  5.96876e-04
       L  3.26506e-03  1.18605e-04 -1.27752e-04
       L  2.49742e-04 -7.37464e-03 -9.76241e-04
5
# CELL(abcABC):   23.46473    23.46473    23.46473    90.00000    90.00000    90.00000  Step:           9  Bead:       0 f_centroid{atomic_unit}  cell{atomic_unit}
       O -1.37416e-03 -8.05181e-03  2.81791e-03
       H  1.58823e-03  1.05065e-02 -3.27047e-03
       H -2.14071e-04 -2.45465e-03  4.52555e-04
       L  3.55029e-03  5.50141e-06 -3.22556e-04
       L  1.94031e-04 -8.14520e-03 -8.43063e-04
5
# CELL(abcABC):   23.46473    23.46473    23.46473    90.00000    90.00000    90.00000  Step:          10  Bead:       0 f_centroid{atomic_unit}  cell{atomic_unit}
       O -5.46296e-03 -2.40457e-02  1.12979e-02
       H  5.71505e-03  2.43432e-02 -1.18143e-02
       H -2.52090e-04 -2.97491e-04  5.16454e-04
       L  3.43861e-03 -1.08245e-04 -4.81306e-04
       L  1.16642e-04 -8.00551e-03 -6.15644e-04
