194
# CELL(abcABC):   23.46473    23.46473    23.46473    90.00000    90.00000    90.00000  Step:           0  Bead:       0 f_centroid{atomic_unit}  cell{atomic_unit}
       O -4.34220e-03  2.18364e-03 -6.16133e-04
       H  1.43128e-03  5.38021e-03  1.81101e-03
       H  5.88620e-03 -1.17750e-02  2.08729e-03
       O  2.07457e-02  1.90996e-02 -1.13356e-02
       H -1.60236e-02 -8.34347e-03  1.81473e-02
       H -7.13909e-03 -9.01784e-03 -9.74384e-03
       O  2.61201e-02 -7.24805e-03  1.89795e-03
       H -4.37731e-03 -4.63222e-03 -6.74507e-03
       H -1.10381e-02  6.91939e-03 -2.06108e-03
       O -1.68218e-03  2.25552e-02 -7.79281e-03
       H  4.87749e-03 -5.88924e-03 -7.83437e-03
       H -3.07116e-03 -2.28592e-02  1.36934e-02
       O  1.37239e-02 -2.56345e-02 -3.86332e-02
       H -1.71784e-02  1.54269e-02  4.38821e-02
       H -1.63148e-03  1.18119e-02 -5.87270e-03
       O -8.51153e-03 -6.79539e-03 -3.30626e-02
       H -2.19807e-03 -3.11737e-03  1.77262e-02
       H  1.22974e-02  1.26878e-02  9.62187e-03
       O -6.11729e-03  1.25608e-02 -3.45874e-02
       H -2.65906e-03 -1.10436e-02  2.43030e-02
       H  5.75449e-03  3.00950e-05  4.85334e-03
       O -5.35199e-03 -1.50884e-03 -1.51777e-02
       H  2.97452e-03  5.13871e-03  1.10867e-02
       H  5.65888e-03  4.54503e-05  1.20948e-03
       O  3.54092e-03 -2.59190e-03 -8.73179e-03
       H -3.89928e-03 -7.10109e-04 -1.56732e-03
       H -5.26026e-03  6.94915e-03  8.96971e-03
       O -3.55200e-02 -1.12322e-03 -1.55558e-02
       H  2.09163e-02 -3.73858e-03  1.23991e-02
       H  9.91827e-03  3.68718e-03  8.29731e-03
       O -2.83740e-02  3.04752e-02  1.62026e-02
       H  2.97416e-02 -2.55788e-02 -1.11182e-02
       H -1.96674e-03 -7.71660e-03 -7.37831e-03
       O -4.92173e-04 -2.73335e-02 -1.89442e-02
       H -8.94472e-03  1.96186e-02  1.36958e-02
       H  8.12550e-03  8.02194e-03  3.57069e-03
       O  7.67818e-03  2.44897e-02 -1.78897e-02
       H  8.09282e-03 -1.11539e-02  1.33912e-02
       H -7.00490e-03 -9.75855e-03  8.35553e-03
       O -3.11678e-02  7.15466e-03 -6.93109e-03
       H  1.25944e-02 -5.27876e-03 -7.40432e-03
       H  1.70649e-02 -7.11292e-03  1.44843e-02
       O -1.12795e-02 -1.04166e-03  2.03168e-02
       H -7.68918e-03 -4.09066e-03 -9.16026e-04
       H  7.18000e-03  5.84827e-03 -1.22020e-02
       O  3.86430e-02 -1.06347e-02  4.84479e-02
       H -2.87621e-02  1.83837e-02 -1.64233e-02
       H -2.90902e-03 -1.20217e-02 -2.96910e-02
       O  8.91450e-03  4.05415e-02 -6.53238e-03
       H  3.14686e-03 -1.17053e-02  1.59860e-02
       H -2.60155e-03 -3.43728e-02 -7.70563e-03
       O  8.57030e-03 -1.86654e-02  4.64588e-03
       H  1.26768e-02  5.77918e-03 -1.10631e-03
       H -1.16998e-02  1.86972e-02 -1.11247e-02
       O  7.35749e-03  1.12173e-04  1.53671e-02
       H -1.29620e-02  8.04292e-03 -5.84760e-03
       H  7.09011e-03 -4.73477e-03 -1.17056e-02
       O  3.13113e-02 -1.62137e-02  1.29395e-02
       H -2.68969e-02 -7.72797e-03  4.86169e-03
       H -8.78558e-03  1.78669e-02 -2.36241e-02
       O  1.68770e-02 -9.06279e-03 -7.58402e-03
       H  1.04857e-02 -1.10705e-03 -5.94231e-03
       H -2.08794e-02  9.80736e-03  1.44416e-02
       O -4.86097e-03 -2.68918e-02 -1.36777e-02
       H -9.62652e-03  7.54783e-03  2.50018e-03
       H  1.19129e-02  2.11483e-02  7.27697e-03
       O -5.82789e-02 -1.58183e-03 -1.57814e-02
       H  1.51741e-02  1.21818e-02 -1.06656e-02
       H  4.13178e-02 -1.22683e-02  2.56976e-02
       O  2.21478e-02  6.55862e-03  5.66109e-03
       H -3.87994e-03 -1.09446e-02  5.80044e-04
       H -1.15735e-02  7.03688e-03 -3.08897e-03
       O -1.83880e-02 -2.06613e-02 -2.40138e-02
       H  9.45684e-03  9.20836e-03  2.58229e-03
       H -9.26246e-04  1.81581e-02  1.14400e-02
       O -5.20067e-03  3.55972e-02  4.22739e-03
       H -3.88437e-03 -2.73423e-02 -1.18957e-02
       H  1.31855e-02 -1.42653e-03  1.59706e-02
       O -1.06167e-02  2.23118e-02 -1.20311e-02
       H  1.56893e-02 -1.81123e-02  5.43911e-03
       H -9.35236e-03 -3.46029e-03  1.14384e-02
       O  4.41873e-03  5.21231e-03 -5.88076e-03
       H  7.57277e-03 -7.65767e-03  1.71988e-03
       H -4.09050e-03  7.49755e-04 -3.87615e-04
       O  2.00835e-02 -2.33859e-02 -2.88241e-02
       H -1.40806e-03  2.59734e-02  1.53096e-02
       H -1.53015e-02 -1.84473e-03  1.77528e-02
       O  4.41660e-03  5.14392e-03 -8.48871e-04
       H -1.60126e-03 -7.98499e-03  5.70206e-03
       H -3.38769e-03  3.85090e-03 -1.11418e-02
       O -3.77807e-02 -2.17231e-02  4.36974e-03
       H  4.03765e-03  2.10542e-02  9.78413e-03
       H  2.82533e-02  7.66321e-03 -1.68192e-02
       O -6.65035e-03 -3.17631e-02 -8.69944e-03
       H  1.38348e-03  1.93269e-02 -4.28999e-03
       H  8.49222e-03  3.86179e-03  1.26826e-02
       O  1.58666e-02 -6.68407e-03  4.17081e-03
       H -5.89327e-03 -1.32354e-03 -5.12782e-04
       H -1.01847e-03  3.73011e-03  5.86799e-03
       O  1.69212e-02  1.12557e-02  2.02935e-03
       H -5.92877e-03 -1.21522e-02 -5.93840e-04
       H -1.48291e-02 -2.76849e-03 -1.50486e-03
       O -9.52156e-03 -7.24983e-03 -7.74959e-04
       H -4.01694e-03 -1.51531e-04  2.72085e-03
       H  4.84396e-03  5.60352e-03  8.96323e-04
       O  1.48202e-03 -6.95097e-03  2.00012e-02
       H -3.59833e-03  1.63158e-02 -9.42425e-03
       H -1.52403e-03 -6.25249e-03 -6.15618e-03
       O -1.91116e-02  5.44110e-03  8.45832e-03
       H -2.05880e-03 -2.44388e-04 -7.08972e-03
       H  1.01355e-02 -5.83202e-03  4.04027e-03
       O  1.23624e-02 -3.49315e-02  1.29962e-02
       H -6.63089e-05 -2.75397e-03  1.15518e-03
       H -6.87843e-03  3.98495e-02 -1.29093e-02
       O  1.75419e-02  2.10330e-02  3.16903e-02
       H -1.07661e-02 -6.71407e-03 -1.07530e-02
       H -1.13125e-02 -9.32749e-03 -2.03923e-02
       O  1.43854e-02  1.20115e-02 -7.73864e-03
       H  3.63750e-03 -8.96071e-03 -2.00957e-03
       H -2.19302e-02 -7.03383e-03  1.25037e-02
       O -5.75111e-03 -2.50962e-02  4.12369e-02
       H  2.71083e-03 -5.40146e-03 -2.61367e-03
       H -2.07952e-03  2.60556e-02 -4.63674e-02
       O  4.27706e-02 -1.11131e-03 -2.82559e-03
       H -7.67148e-03  1.32903e-03 -9.84426e-03
       H -3.53819e-02  1.09676e-02  1.55357e-02
       O -1.17958e-02 -8.48244e-03  8.53168e-03
       H  7.59738e-03  3.45746e-03 -6.66863e-03
       H -3.12991e-03  5.02105e-03  1.83289e-03
       O -1.42020e-02  8.87474e-03 -1.28210e-02
       H  3.85258e-03 -4.04073e-03  1.52288e-02
       H  2.10207e-03  3.63062e-04  5.60787e-03
       O -9.40116e-03 -5.98597e-03  4.16252e-02
       H -9.59134e-03 -2.05540e-03 -1.39113e-02
       H  2.04034e-02  5.37097e-03 -2.32703e-02
       O -1.77432e-02  2.00054e-02  3.85679e-02
       H  1.09112e-02 -9.92081e-03 -1.81441e-03
       H -1.76472e-03 -9.21142e-03 -4.14068e-02
       O  1.63811e-02 -1.95182e-02 -3.46134e-02
       H -1.96641e-02  3.88572e-03  6.03269e-03
       H  7.95096e-03  2.03841e-02  2.30421e-02
       O -7.18333e-04 -2.06756e-02 -4.52410e-03
       H  3.72702e-03  1.10696e-02  3.95992e-03
       H -6.20028e-03  4.15015e-03  4.80945e-03
       O -2.58890e-02 -1.17512e-02 -1.70750e-02
       H  2.64409e-02 -7.90851e-03  1.32381e-02
       H -1.57236e-02  1.74131e-02  4.98785e-03
       O  7.89846e-03  1.17023e-03  1.21620e-02
       H -2.37649e-03  5.41904e-03  7.78726e-03
       H -4.75290e-03 -3.20497e-03 -1.30851e-02
       O -8.05400e-03  1.13995e-02  2.64071e-02
       H  7.63275e-03 -1.44164e-02 -3.78615e-03
       H  7.09285e-03  3.46271e-03 -1.85455e-02
       O -1.11508e-02  3.82367e-03 -6.09757e-03
       H  3.93225e-03 -6.48963e-03  1.64978e-02
       H  3.40970e-03  3.27575e-03 -8.58251e-03
       O -5.33067e-03 -1.79066e-03 -1.61343e-02
       H  1.28580e-02  8.54429e-03  1.81685e-02
       H -4.04791e-03 -1.17320e-02 -4.06400e-03
       O  2.90060e-03 -1.43117e-02  1.69977e-02
       H -7.27288e-03  7.65432e-03 -1.15053e-02
       H  7.35166e-03  6.25356e-03  4.81531e-03
       O  3.35954e-03  1.55995e-03  3.50368e-03
       H  1.47549e-03  4.74940e-03 -1.32358e-02
       H -7.18621e-03 -4.78713e-03  4.76192e-03
       O -2.63278e-02 -2.23595e-02 -1.10412e-03
       H  2.58937e-02 -3.07071e-03 -4.20093e-04
       H  8.12665e-03  2.76804e-02  4.07919e-03
       O  3.53020e-02 -2.74202e-02 -2.14462e-02
       H -2.46952e-02  3.16778e-02  1.44537e-02
       H -4.41709e-03  4.99043e-04  1.78018e-03
       O  1.09119e-02 -1.75456e-02 -6.17167e-03
       H -5.08967e-03  1.12402e-02  1.35962e-02
       H -2.48096e-04  7.93200e-03 -5.24466e-03
       O -2.00186e-02 -7.00194e-03  1.33333e-02
       H  2.15039e-02  5.15275e-03 -4.48999e-03
       H  8.04517e-03 -5.37677e-03 -6.55759e-03
       O  2.29141e-03 -9.93896e-03  4.33913e-03
       H -3.76138e-03  1.15765e-02  4.23582e-04
       H -5.49829e-04 -7.94672e-03 -9.76108e-03
       O -2.62054e-02 -8.05591e-04 -2.03294e-02
       H  3.02097e-02  5.31778e-03  5.12399e-03
       H  9.28309e-04 -3.98736e-03  2.33411e-03
       O  3.38711e-02  1.12621e-02  3.98319e-02
       H  8.44225e-03 -1.81289e-02 -1.33724e-02
       H -3.38133e-02  5.14904e-03 -2.98325e-02
       O -1.73508e-02  2.19313e-03 -1.17541e-02
       H  4.80298e-03  2.84221e-03  2.35026e-03
       H  8.14997e-03 -3.91621e-03  7.54324e-03
       O  1.79059e-02  2.42522e-02  1.19209e-02
       H -4.64146e-03 -6.08754e-03 -1.06383e-02
       H -1.55823e-02 -2.03786e-02  1.40248e-03
       L -1.66507e-03  3.51530e-05  3.83570e-04
       L -1.68838e-04  3.27223e-03  7.72634e-04
194
# CELL(abcABC):   23.46473    23.46473    23.46473    90.00000    90.00000    90.00000  Step:           1  Bead:       0 f_centroid{atomic_unit}  cell{atomic_unit}
       O -9.30347e-04  1.44487e-02 -6.84735e-03
       H -1.70492e-03 -6.43411e-03  7.94079e-03
       H  5.90403e-03 -1.16575e-02  2.00615e-03
       O  1.76182e-02  2.35216e-02  2.48702e-03
       H -1.02674e-02 -7.97104e-03  5.76548e-03
       H -9.89288e-03 -1.37025e-02 -1.11720e-02
       O  2.07360e-02 -2.89353e-03  4.20243e-03
       H -3.91221e-03 -6.15912e-03 -8.83091e-03
       H -6.75520e-03  4.82935e-03 -1.92155e-03
       O -6.34800e-03  2.39175e-02 -8.44717e-03
       H  9.91080e-03 -7.55274e-03 -6.59563e-03
       H -3.63019e-03 -2.23315e-02  1.30662e-02
       O  1.31626e-02 -2.49607e-02 -4.68673e-02
       H -1.84911e-02  1.68230e-02  4.90868e-02
       H  6.41947e-05  9.82302e-03 -3.82989e-03
       O -1.00006e-02 -9.75074e-03 -3.41653e-02
       H -4.69386e-03 -6.83598e-03  1.80010e-02
       H  1.61871e-02  1.89900e-02  1.02278e-02
       O -9.40471e-03  9.58781e-03 -2.94644e-02
       H -1.12106e-03 -8.52574e-03  1.99538e-02
       H  7.44510e-03 -1.03689e-05  4.59361e-03
       O -3.66090e-03  5.55352e-04 -1.24301e-02
       H  2.62408e-03  3.80546e-03  8.61347e-03
       H  4.68820e-03 -8.52001e-04  1.11111e-03
       O  1.63925e-02 -1.19460e-02 -2.75391e-03
       H -7.75157e-03  3.72185e-03 -1.04962e-02
       H -1.38224e-02  1.15988e-02  1.20709e-02
       O -2.83689e-02  2.01522e-03 -1.19073e-02
       H  1.44470e-02 -4.85034e-03  9.09333e-03
       H  9.48109e-03  1.95894e-03  7.98570e-03
       O -3.69072e-02  2.26277e-02  1.59994e-03
       H  3.00176e-02 -2.49879e-02 -1.08885e-02
       H  6.08989e-03 -6.48362e-04  6.29247e-03
       O  2.60457e-03 -3.02045e-02 -1.90180e-02
       H -1.13619e-02  2.19011e-02  1.46544e-02
       H  7.00735e-03  8.42124e-03  2.75981e-03
       O  6.63654e-03  2.26710e-02 -1.74198e-02
       H  9.05479e-03 -1.09013e-02  1.35692e-02
       H -6.90983e-03 -8.09779e-03  7.59914e-03
       O -2.88782e-02  7.00145e-03 -7.66720e-03
       H  1.17137e-02 -4.15238e-03 -6.03913e-03
       H  1.57479e-02 -7.67121e-03  1.35766e-02
       O -4.66475e-03  7.30053e-04  1.34256e-02
       H -9.38123e-03 -2.39056e-03  4.01373e-03
       H  2.76326e-03  1.97728e-03 -1.07190e-02
       O  3.10299e-02 -4.69310e-03  4.36294e-02
       H -2.19726e-02  1.31097e-02 -1.14815e-02
       H -2.38338e-03 -1.27636e-02 -2.99967e-02
       O  1.00145e-02  3.65530e-02 -3.57208e-03
       H  1.14081e-03 -9.65420e-03  1.24288e-02
       H -2.31086e-03 -3.23562e-02 -7.08223e-03
       O  6.88367e-03 -1.64241e-02  3.50716e-03
       H  1.25938e-02  5.62547e-03 -1.78437e-03
       H -9.75338e-03  1.67906e-02 -9.79362e-03
       O  2.89826e-03  2.62379e-03  1.43805e-02
       H -1.00002e-02  5.99233e-03 -6.11467e-03
       H  8.80794e-03 -5.52991e-03 -1.07784e-02
       O  2.78974e-02 -2.30024e-02  1.95499e-02
       H -2.56652e-02 -6.98844e-03  4.11077e-03
       H -6.34401e-03  2.38424e-02 -2.91718e-02
       O  1.20769e-02 -8.09104e-03 -3.10964e-03
       H  1.07229e-02 -2.40274e-03 -6.56995e-03
       H -1.60800e-02  1.01133e-02  1.17108e-02
       O -1.63749e-03 -2.33652e-02 -1.18917e-02
       H -8.11751e-03  8.12790e-03  2.79405e-03
       H  7.62714e-03  1.76300e-02  5.42694e-03
       O -6.18470e-02 -2.26509e-03 -1.62951e-02
       H  1.67500e-02  1.45100e-02 -1.24667e-02
       H  4.29360e-02 -1.40091e-02  2.78693e-02
       O  2.37446e-02 -6.65632e-03  5.04374e-03
       H  6.69072e-04 -5.36959e-03  2.07445e-03
       H -1.76959e-02  1.42813e-02 -3.73895e-03
       O -1.06083e-02 -1.36108e-02 -2.96781e-02
       H  1.94740e-03 -4.36993e-05  8.25517e-03
       H -8.28040e-04  1.97265e-02  1.14047e-02
       O -1.20117e-04  2.78527e-02  5.36295e-03
       H -3.34279e-03 -1.97630e-02 -6.84100e-03
       H  7.42606e-03 -1.33870e-03  9.50319e-03
       O -1.24718e-02  2.17706e-02 -9.60195e-03
       H  1.80997e-02 -1.93167e-02  3.70739e-03
       H -1.00530e-02 -1.55793e-03  1.06855e-02
       O  3.65931e-03  7.96273e-03 -8.29017e-03
       H  7.86101e-03 -9.59908e-03  1.87501e-03
       H -3.86131e-03  3.26885e-04  2.29014e-03
       O  2.13658e-02 -1.97250e-02 -2.87153e-02
       H -1.67395e-03  2.31373e-02  1.43001e-02
       H -1.65494e-02 -2.03846e-03  1.85964e-02
       O  3.88108e-03  4.91611e-03 -2.05405e-03
       H -1.21415e-03 -8.39978e-03  6.73357e-03
       H -3.14811e-03  4.70267e-03 -1.08773e-02
       O -5.97463e-02 -2.50395e-02  1.48967e-02
       H  8.22878e-03  2.57687e-02  1.15706e-02
       H  4.57974e-02  5.70509e-03 -2.89143e-02
       O -8.52503e-03 -1.47449e-02 -8.65819e-03
       H  5.68057e-03  8.79345e-03  1.81815e-03
       H  6.26341e-03 -2.43525e-03  6.36315e-03
       O -7.26280e-04  5.94742e-03 -4.89743e-03
       H  6.62328e-03 -2.21255e-03 -1.11345e-04
       H  2.40531e-03 -7.87120e-03  1.46155e-02
       O  2.21019e-02  1.94711e-02  4.64498e-03
       H -6.67619e-03 -1.84905e-02  3.16950e-04
       H -1.93516e-02 -4.50377e-03 -4.40814e-03
       O -4.24495e-03 -9.33762e-03 -6.03862e-03
       H -9.95072e-03  3.64154e-03  4.87425e-03
       H  5.43737e-03  3.56572e-03  4.09576e-03
       O  3.97663e-03 -2.15406e-02  2.54868e-02
       H -4.23408e-03  2.59565e-02 -1.75403e-02
       H -3.54393e-03 -1.51934e-03 -3.68728e-03
       O -2.08256e-02  8.42637e-03  1.06416e-02
       H -9.71343e-04 -2.36096e-03 -8.56671e-03
       H  1.04761e-02 -6.31212e-03  3.95514e-03
       O  1.35779e-02 -4.44205e-02  1.40576e-02
       H -1.14044e-03 -3.18383e-03  3.00963e-03
       H -7.03255e-03  4.95047e-02 -1.56835e-02
       O  2.96697e-02  1.54141e-02  3.48335e-02
       H -1.64211e-02  6.70330e-04 -8.76922e-03
       H -1.77810e-02 -1.13591e-02 -2.54003e-02
       O  1.29563e-02  1.47446e-02 -5.35897e-03
       H  6.10954e-03 -8.52114e-03 -4.38097e-03
       H -2.27594e-02 -1.03240e-02  1.22606e-02
       O -1.30365e-02 -1.46929e-02  3.05268e-02
       H  7.70531e-03 -7.63071e-03 -4.62248e-03
       H  2.42767e-04  1.78938e-02 -3.36056e-02
       O  4.08378e-02  3.84680e-03  8.66622e-03
       H -1.27413e-02 -2.45528e-03 -1.81895e-02
       H -2.83423e-02  9.71347e-03  1.20636e-02
       O -9.60608e-03 -6.16796e-03  7.90344e-03
       H  5.93873e-03  2.96970e-03 -6.78395e-03
       H -3.61701e-03  2.92579e-03  2.13422e-03
       O -1.53664e-02  1.25349e-02 -1.35902e-02
       H  5.55570e-03 -5.53048e-03  1.83584e-02
       H  2.03524e-03 -2.23893e-03  3.27202e-03
       O -1.13197e-02 -6.80225e-03  3.77706e-02
       H -8.96753e-03 -1.75611e-03 -9.79175e-03
       H  2.15264e-02  5.87682e-03 -2.37508e-02
       O -1.86668e-02  1.97235e-02  3.43718e-02
       H  1.15966e-02 -1.06346e-02 -1.74974e-03
       H -1.30594e-03 -8.35297e-03 -3.69066e-02
       O  1.55728e-02 -2.26950e-02 -3.85044e-02
       H -2.14989e-02  6.51917e-03  1.10010e-02
       H  1.07152e-02  2.09560e-02  2.25764e-02
       O  9.16565e-03 -3.13969e-02 -7.01468e-03
       H -1.88712e-04  2.20228e-02  3.96821e-03
       H -1.18045e-02  3.58305e-03  6.86963e-03
       O -2.19776e-02 -7.34653e-03 -1.48845e-02
       H  2.67356e-02 -9.77639e-03  1.34114e-02
       H -1.95717e-02  1.50129e-02  2.77825e-03
       O  2.37496e-02  1.00104e-02  9.33674e-03
       H -1.32315e-02 -4.11894e-03  2.11248e-03
       H -9.57521e-03 -2.16851e-03 -4.52125e-03
       O -8.23971e-03  1.08776e-02  2.71263e-02
       H  6.73144e-03 -1.38562e-02 -2.54163e-03
       H  7.91321e-03  3.34563e-03 -2.02569e-02
       O -3.78618e-03  1.21334e-03 -5.48430e-03
       H  3.66732e-03 -6.04161e-03  1.46408e-02
       H -4.06880e-03  5.55010e-03 -7.05733e-03
       O -7.67842e-03 -1.01391e-02 -1.23939e-02
       H  1.06666e-02  6.55800e-03  1.40506e-02
       H  3.75207e-05 -1.35303e-03 -3.81574e-03
       O  4.18543e-03 -1.94832e-02  1.44737e-02
       H -6.76953e-03  9.11091e-03 -1.02021e-02
       H  5.48015e-03  9.78787e-03  6.51612e-03
       O  1.06475e-02  6.75226e-03 -4.16142e-04
       H  2.06839e-03  5.80277e-03 -1.43853e-02
       H -1.48427e-02 -1.11914e-02  9.80140e-03
       O -1.85307e-02 -1.47160e-02 -1.78066e-03
       H  2.15461e-02 -2.28846e-03 -4.07522e-04
       H  4.67619e-03  1.93328e-02  4.14704e-03
       O  2.94903e-02 -2.27261e-02 -1.83764e-02
       H -2.07211e-02  2.77109e-02  1.27706e-02
       H -3.16658e-03  1.84498e-04  5.33868e-04
       O  1.14842e-02 -1.55101e-02 -6.58984e-03
       H -4.24122e-03  1.01750e-02  1.20829e-02
       H -1.64124e-03  6.94042e-03 -3.77957e-03
       O -1.94168e-02  1.50503e-03  7.06727e-03
       H  1.77496e-02  2.53199e-03 -2.34134e-03
       H  1.14338e-02 -1.13432e-02 -2.92509e-03
       O  2.57406e-03 -2.22377e-03  5.09192e-03
       H -4.43332e-03  6.53309e-03  1.98191e-03
       H -3.18720e-05 -9.72273e-03 -1.20038e-02
       O -2.93032e-02 -4.26256e-04 -2.55247e-02
       H  3.22158e-02  6.29573e-03  5.13583e-03
       H  2.31656e-03 -5.38207e-03  7.21551e-03
       O  3.59031e-02  1.01732e-02  4.14779e-02
       H  6.98109e-03 -1.70199e-02 -1.36236e-02
       H -3.43022e-02  4.95192e-03 -3.10660e-02
       O -8.94308e-03  1.17798e-03 -6.92491e-03
       H  4.04239e-03  1.33468e-03  3.38978e-03
       H  8.15016e-04 -1.41338e-03  1.60632e-03
       O  1.81176e-02  2.69759e-02  2.35572e-02
       H -1.32468e-03 -3.22788e-03 -1.50133e-02
       H -1.90275e-02 -2.60838e-02 -5.53903e-03
       L -1.66222e-03  2.31169e-04  4.35527e-04
       L  1.14833e-04  2.99191e-03  3.12316e-04
194
# CELL(abcABC):   23.46473    23.46473    23.46473    90.00000    90.00000    90.00000  Step:           2  Bead:       0 f_centroid{atomic_unit}  cell{atomic_unit}
       O  2.44190e-03  2.37626e-02 -1.25764e-02
       H -4.19960e-03 -1.61929e-02  1.29765e-02
       H  5.40827e-03 -1.06439e-02  2.59512e-03
       O  1.36142e-02  2.60836e-02  1.59188e-02
       H -4.49571e-03 -7.43908e-03 -6.54785e-03
       H -1.17750e-02 -1.67232e-02 -1.21858e-02
       O  1.44961e-02  1.19029e-03  5.27939e-03
       H -3.32415e-03 -7.08088e-03 -9.71016e-03
       H -1.84223e-03  2.39693e-03 -1.75230e-03
       O -9.77455e-03  2.30869e-02 -7.06037e-03
       H  1.38382e-02 -8.90261e-03 -5.56165e-03
       H -4.26162e-03 -1.99214e-02  1.07487e-02
       O  1.10408e-02 -2.26543e-02 -5.23133e-02
       H -1.87105e-02  1.73996e-02  5.13257e-02
       H  2.20470e-03  7.04636e-03 -1.34370e-03
       O -1.07295e-02 -1.11069e-02 -3.14945e-02
       H -6.06583e-03 -9.18274e-03  1.62708e-02
       H  1.81778e-02  2.23772e-02  9.17618e-03
       O -1.23081e-02  4.89925e-03 -2.14542e-02
       H  8.26683e-04 -4.59457e-03  1.30819e-02
       H  8.36074e-03  9.29825e-05  3.97548e-03
       O -9.31309e-04  3.32974e-03 -8.79227e-03
       H  1.80866e-03  1.96776e-03  5.15473e-03
       H  3.11785e-03 -1.92662e-03  1.11517e-03
       O  2.65175e-02 -1.96261e-02  3.46195e-03
       H -1.12230e-02  7.61838e-03 -1.86983e-02
       H -2.01726e-02  1.51529e-02  1.42221e-02
       O -1.93129e-02  5.76092e-03 -7.37546e-03
       H  6.45041e-03 -5.96515e-03  5.05447e-03
       H  8.70468e-03 -2.68899e-04  7.49903e-03
       O -4.30893e-02  1.28005e-02 -1.49893e-02
       H  2.72392e-02 -2.23777e-02 -1.01830e-02
       H  1.48432e-02  6.45940e-03  2.15080e-02
       O  4.08788e-03 -2.99970e-02 -1.64125e-02
       H -1.15194e-02  2.15540e-02  1.37485e-02
       H  5.26002e-03  8.41953e-03  1.24604e-03
       O  5.84703e-03  1.94320e-02 -1.53476e-02
       H  8.86615e-03 -1.00274e-02  1.26658e-02
       H -5.94560e-03 -5.66562e-03  6.28283e-03
       O -2.45215e-02  6.18973e-03 -8.19593e-03
       H  1.04038e-02 -2.40371e-03 -3.94201e-03
       H  1.27273e-02 -8.23313e-03  1.17697e-02
       O  2.05979e-03  3.27690e-03  6.57041e-03
       H -1.04478e-02 -7.89593e-04  8.63011e-03
       H -2.34636e-03 -2.53529e-03 -8.80596e-03
       O  2.04638e-02  1.39185e-03  3.44357e-02
       H -1.25582e-02  6.43364e-03 -4.89119e-03
       H -1.66237e-03 -1.22644e-02 -2.77604e-02
       O  1.12905e-02  2.71488e-02 -1.37457e-03
       H -1.57165e-03 -6.62233e-03  7.84879e-03
       H -1.44064e-03 -2.60258e-02 -4.75510e-03
       O  4.73384e-03 -1.26153e-02  9.27482e-04
       H  1.16045e-02  5.15039e-03 -2.00548e-03
       H -6.42455e-03  1.37276e-02 -7.45942e-03
       O -2.71609e-03  5.16382e-03  1.15753e-02
       H -5.73489e-03  3.35381e-03 -5.68047e-03
       H  1.03398e-02 -5.76656e-03 -8.73637e-03
       O  2.32259e-02 -2.57086e-02  2.25050e-02
       H -2.24773e-02 -6.49603e-03  3.51030e-03
       H -4.68349e-03  2.60673e-02 -3.13208e-02
       O  5.75845e-03 -7.52496e-03  1.99374e-03
       H  1.05738e-02 -3.19846e-03 -6.84236e-03
       H -9.47285e-03  1.03742e-02  7.87558e-03
       O  2.16051e-03 -1.75298e-02 -8.66882e-03
       H -5.49294e-03  8.13077e-03  2.87721e-03
       H  1.79391e-03  1.23909e-02  2.48043e-03
       O -6.12008e-02 -2.62904e-03 -1.56937e-02
       H  1.69246e-02  1.51588e-02 -1.33258e-02
       H  4.18165e-02 -1.44749e-02  2.80224e-02
       O  2.30690e-02 -1.90928e-02  4.00915e-03
       H  5.33845e-03  1.02181e-03  3.50431e-03
       H -2.16989e-02  1.98957e-02 -3.90995e-03
       O -3.47309e-03 -6.08779e-03 -3.31078e-02
       H -4.55219e-03 -8.43497e-03  1.31469e-02
       H -1.12956e-03  2.00458e-02  1.00003e-02
       O  7.01761e-03  1.75255e-02  5.94803e-03
       H -3.19642e-03 -9.65466e-03 -5.99455e-05
       H  6.86466e-05 -1.17409e-03  1.83806e-03
       O -1.28521e-02  1.93639e-02 -7.51189e-03
       H  1.90047e-02 -1.92151e-02  2.68016e-03
       H -1.06881e-02  8.68423e-04  9.48855e-03
       O  3.12697e-03  9.59493e-03 -1.06077e-02
       H  8.00904e-03 -1.04310e-02  2.25399e-03
       H -3.70830e-03 -3.93084e-05  4.64017e-03
       O  1.94006e-02 -1.41064e-02 -2.52679e-02
       H -1.67016e-03  1.82280e-02  1.23673e-02
       H -1.48648e-02 -2.00157e-03  1.69889e-02
       O  3.65851e-03  3.95770e-03 -3.52563e-03
       H -9.96664e-04 -7.99263e-03  7.29078e-03
       H -3.02174e-03  5.41751e-03 -9.88047e-03
       O -7.40761e-02 -2.67146e-02  2.25758e-02
       H  1.10605e-02  2.80119e-02  1.23341e-02
       H  5.72944e-02  4.61734e-03 -3.72182e-02
       O -9.59086e-03  2.57825e-03 -7.82036e-03
       H  9.92316e-03 -1.34117e-03  7.71012e-03
       H  3.27936e-03 -9.44161e-03 -5.53873e-04
       O -1.70131e-02  1.57678e-02 -1.24963e-02
       H  1.96270e-02 -2.82979e-03  1.88021e-04
       H  5.05936e-03 -1.70114e-02  2.19443e-02
       O  2.50693e-02  2.44269e-02  5.73899e-03
       H -7.47283e-03 -2.28457e-02  1.03731e-03
       H -2.15802e-02 -5.10471e-03 -5.92814e-03
       O  1.15154e-04 -1.06868e-02 -1.07918e-02
       H -1.50115e-02  6.79661e-03  6.73586e-03
       H  6.11288e-03  1.55434e-03  7.18407e-03
       O  6.25676e-03 -3.28886e-02  2.84260e-02
       H -4.59617e-03  3.23060e-02 -2.33163e-02
       H -5.64455e-03  3.39181e-03 -1.21761e-03
       O -2.11346e-02  1.04572e-02  1.33140e-02
       H -1.34010e-04 -4.04933e-03 -9.53381e-03
       H  9.68122e-03 -6.27014e-03  2.96947e-03
       O  1.45475e-02 -4.53766e-02  1.21400e-02
       H -2.05909e-03 -3.65644e-03  4.67309e-03
       H -7.06164e-03  5.07038e-02 -1.53109e-02
       O  3.87340e-02  8.81975e-03  3.59446e-02
       H -2.15879e-02  7.63372e-03 -6.67128e-03
       H -2.17645e-02 -1.20311e-02 -2.84049e-02
       O  8.85187e-03  1.56291e-02 -7.85441e-04
       H  8.51369e-03 -7.54022e-03 -6.53457e-03
       H -2.08974e-02 -1.23689e-02  9.61502e-03
       O -1.99371e-02 -2.62078e-03  1.50965e-02
       H  1.15300e-02 -9.43096e-03 -5.89434e-03
       H  3.34405e-03  7.69241e-03 -1.68580e-02
       O  3.41905e-02  8.27269e-03  1.96430e-02
       H -1.66208e-02 -5.49991e-03 -2.47790e-02
       H -1.78910e-02  7.99801e-03  7.25274e-03
       O -6.37698e-03 -3.78936e-03  7.13189e-03
       H  3.27774e-03  2.52960e-03 -6.73790e-03
       H -4.07751e-03  6.60797e-04  2.45635e-03
       O -1.54899e-02  1.52866e-02 -1.27375e-02
       H  6.32293e-03 -6.23636e-03  1.98975e-02
       H  1.96021e-03 -4.77616e-03  8.85796e-04
       O -1.13867e-02 -7.26775e-03  3.06474e-02
       H -7.97350e-03 -1.23450e-03 -4.13758e-03
       H  2.05131e-02  5.83831e-03 -2.25730e-02
       O -1.89447e-02  1.68440e-02  2.46996e-02
       H  1.13956e-02 -1.00896e-02 -1.53923e-03
       H -5.74357e-04 -6.23192e-03 -2.71530e-02
       O  1.37726e-02 -2.34832e-02 -3.77469e-02
       H -2.10953e-02  8.05980e-03  1.35988e-02
       H  1.21786e-02  2.01341e-02  2.00112e-02
       O  1.68839e-02 -3.92959e-02 -8.83175e-03
       H -3.35468e-03  3.04467e-02  3.93548e-03
       H -1.61120e-02  2.81337e-03  8.31017e-03
       O -1.73686e-02 -4.20128e-03 -1.25504e-02
       H  2.54016e-02 -1.00313e-02  1.28978e-02
       H -2.23565e-02  1.22787e-02  1.09275e-03
       O  3.77191e-02  1.67362e-02  6.23142e-03
       H -2.22896e-02 -1.15793e-02 -2.83639e-03
       H -1.43533e-02 -1.09444e-03  3.58135e-03
       O -6.94355e-03  9.98922e-03  2.41874e-02
       H  5.41687e-03 -1.19397e-02 -6.17277e-04
       H  7.63763e-03  2.21712e-03 -1.90511e-02
       O  4.17085e-03 -1.82681e-03 -2.93867e-03
       H  2.69026e-03 -4.96562e-03  1.09135e-02
       H -1.14204e-02  7.61330e-03 -5.60623e-03
       O -9.56466e-03 -1.85880e-02 -6.69677e-03
       H  8.00790e-03  3.84936e-03  8.08413e-03
       H  4.19314e-03  9.87842e-03 -3.67905e-03
       O  4.33021e-03 -2.39852e-02  1.11612e-02
       H -5.40322e-03  1.04228e-02 -7.92233e-03
       H  3.85982e-03  1.27505e-02  7.93362e-03
       O  1.55876e-02  1.17993e-02 -4.21230e-03
       H  3.31853e-03  5.78276e-03 -1.48074e-02
       H -2.08887e-02 -1.63375e-02  1.40005e-02
       O -6.74569e-03 -5.79338e-03 -3.09625e-03
       H  1.46919e-02 -6.75710e-04 -4.02998e-04
       H -1.39189e-04  8.93900e-03  4.77380e-03
       O  2.20868e-02 -1.49334e-02 -1.39587e-02
       H -1.50817e-02  2.07176e-02  9.90423e-03
       H -1.84988e-03 -1.63329e-04 -8.10189e-04
       O  1.15401e-02 -1.17918e-02 -5.64329e-03
       H -2.76093e-03  7.76679e-03  9.01690e-03
       H -3.19796e-03  5.69007e-03 -2.18019e-03
       O -1.62781e-02  9.32319e-03  5.64370e-04
       H  1.25149e-02 -5.30329e-04  6.65406e-04
       H  1.37652e-02 -1.60896e-02  5.83622e-05
       O  2.96928e-03  4.70401e-03  4.34587e-03
       H -5.19768e-03  9.46950e-04  3.53661e-03
       H  3.04614e-04 -1.02577e-02 -1.26727e-02
       O -2.92213e-02 -1.57295e-04 -2.92202e-02
       H  3.12698e-02  6.89969e-03  4.70923e-03
       H  3.46749e-03 -6.42514e-03  1.11254e-02
       O  3.34535e-02  8.33765e-03  3.73693e-02
       H  4.19486e-03 -1.36214e-02 -1.25793e-02
       H -2.91106e-02  3.19395e-03 -2.78841e-02
       O -6.50036e-04  2.48806e-04 -2.49846e-03
       H  3.25410e-03 -2.28110e-04  4.45352e-03
       H -6.40792e-03  1.03982e-03 -3.93315e-03
       O  1.72601e-02  2.76746e-02  3.21822e-02
       H  1.62609e-03 -7.21369e-04 -1.83125e-02
       H -2.09775e-02 -2.93833e-02 -1.05616e-02
       L -1.47120e-03  4.01342e-04  4.38797e-04
       L  3.85667e-04  2.37311e-03 -1.82915e-04
194
# CELL(abcABC):   23.46473    23.46473    23.46473    90.00000    90.00000    90.00000  Step:           3  Bead:       0 f_centroid{atomic_unit}  cell{atomic_unit}
       O  5.50101e-03  2.96933e-02 -1.73843e-02
       H -5.93626e-03 -2.33983e-02  1.66261e-02
       H  4.52152e-03 -8.85144e-03  3.75065e-03
       O  9.31238e-03  2.66869e-02  2.73588e-02
       H  6.00470e-04 -6.78496e-03 -1.72860e-02
       H -1.26624e-02 -1.79350e-02 -1.27053e-02
       O  7.98607e-03  4.57199e-03  4.90567e-03
       H -2.62072e-03 -7.32422e-03 -9.21436e-03
       H  3.17255e-03 -4.68161e-05 -1.51973e-03
       O -1.12869e-02  2.00564e-02 -3.65060e-03
       H  1.60109e-02 -9.87800e-03 -4.80007e-03
       H -4.99177e-03 -1.57099e-02  6.81917e-03
       O  7.66772e-03 -1.90300e-02 -5.49097e-02
       H -1.79372e-02  1.71949e-02  5.08035e-02
       H  4.60638e-03  3.75372e-03  1.36295e-03
       O -1.05442e-02 -1.03462e-02 -2.46272e-02
       H -6.31395e-03 -1.01321e-02  1.24267e-02
       H  1.81207e-02  2.23028e-02  6.14264e-03
       O -1.43914e-02 -6.64738e-04 -1.18709e-02
       H  2.82016e-03 -3.04633e-05  4.94588e-03
       H  8.43264e-03  3.22336e-04  3.03017e-03
       O  2.49004e-03  6.55804e-03 -4.58869e-03
       H  6.32767e-04 -1.76460e-04  1.06125e-03
       H  1.18048e-03 -3.12534e-03  1.19677e-03
       O  3.31153e-02 -2.47982e-02  8.42012e-03
       H -1.36852e-02  1.03002e-02 -2.46530e-02
       H -2.41712e-02  1.74785e-02  1.53740e-02
       O -9.66845e-03  9.59430e-03 -2.68211e-03
       H -1.86119e-03 -6.87065e-03  9.56706e-04