5
# CELL(abcABC):   23.46473    23.46473    23.46473    90.00000    90.00000    90.00000  Step:           0  Bead:       0 x_centroid{angstrom}  cell{atomic_unit}
       O  1.11322e+01  1.21542e+01 -4.08724e+00
       H  1.13718e+01  1.29747e+01 -4.51006e+00
       H  1.15417e+01  1.15344e+01 -4.67456e+00
       L  6.86465e+00 -7.11010e-02 -7.75814e-01
       L  3.41494e-01 -1.67194e+01 -1.56274e+00
5
# CELL(abcABC):   23.46473    23.46473    23.46473    90.00000    90.00000    90.00000  Step:           1  Bead:       0 x_centroid{angstrom}  cell{atomic_unit}
       O  1.11327e+01  1.21537e+01 -4.08652e+00
       H  1.13746e+01  1.29851e+01 -4.51940e+00
       H  1.15318e+01  1.15315e+01 -4.67679e+00
       L  6.36400e+00 -2.95155e-01 -1.06210e+00
       L  1.73380e-01 -1.57846e+01 -1.04691e+00
5
# CELL(abcABC):   23.46473    23.46473    23.46473    90.00000    90.00000    90.00000  Step:           2  Bead:       0 x_centroid{angstrom}  cell{atomic_unit}
       O  1.11333e+01  1.21533e+01 -4.08600e+00
       H  1.13760e+01  1.29935e+01 -4.52658e+00
       H  1.15214e+01  1.15280e+01 -4.67805e+00
       L  5.11729e+00 -4.86269e-01 -1.22966e+00
       L -1.40933e-02 -1.30966e+01 -4.14058e-01
5
# CELL(abcABC):   23.46473    23.46473    23.46473    90.00000    90.00000    90.00000  Step:           3  Bead:       0 x_centroid{angstrom}  cell{atomic_unit}
       O  1.11340e+01  1.21531e+01 -4.08571e+00
       H  1.13760e+01  1.29989e+01 -4.53112e+00
       H  1.15105e+01  1.15238e+01 -4.67847e+00
       L  3.26444e+00 -6.23069e-01 -1.25977e+00
       L -1.99972e-01 -8.95623e+00  2.65077e-01
5
# CELL(abcABC):   23.46473    23.46473    23.46473    90.00000    90.00000    90.00000  Step:           4  Bead:       0 x_centroid{angstrom}  cell{atomic_unit}
       O  1.11349e+01  1.21531e+01 -4.08565e+00
       H  1.13744e+01  1.30007e+01 -4.53277e+00
       H  1.14991e+01  1.15189e+01 -4.67821e+00
       L  1.01325e+00 -6.90249e-01 -1.14905e+00
       L -3.63485e-01 -3.82640e+00  9.14576e-01
5
# CELL(abcABC):   23.46473    23.46473    23.46473    90.00000    90.00000    90.00000  Step:           5  Bead:       0 x_centroid{angstrom}  cell{atomic_unit}
       O  1.11360e+01  1.21534e+01 -4.08581e+00
       H  1.13711e+01  1.29987e+01 -4.53149e+00
       H  1.14875e+01  1.15131e+01 -4.67742e+00
       L -1.38385e+00 -6.80282e-01 -9.09879e-01
       L -4.86361e-01  1.71965e+00  1.46184e+00
5
# CELL(abcABC):   23.46473    23.46473    23.46473    90.00000    90.00000    90.00000  Step:           6  Bead:       0 x_centroid{angstrom}  cell{atomic_unit}
       O  1.11371e+01  1.21540e+01 -4.08616e+00
       H  1.13664e+01  1.29931e+01 -4.52752e+00
       H  1.14758e+01  1.15066e+01 -4.67627e+00
       L -3.65797e+00 -5.94264e-01 -5.68995e-01
       L -5.54873e-01  7.06238e+00  1.84568e+00
5
# CELL(abcABC):   23.46473    23.46473    23.46473    90.00000    90.00000    90.00000  Step:           7  Bead:       0 x_centroid{angstrom}  cell{atomic_unit}
       O  1.11383e+01  1.21548e+01 -4.08666e+00
       H  1.13605e+01  1.29848e+01 -4.52131e+00
       H  1.14639e+01  1.14993e+01 -4.67488e+00
       L -5.55389e+00 -4.41791e-01 -1.64498e-01
       L -5.61370e-01  1.16053e+01  2.02320e+00
5
# CELL(abcABC):   23.46473    23.46473    23.46473    90.00000    90.00000    90.00000  Step:           8  Bead:       0 x_centroid{angstrom}  cell{atomic_unit}
       O  1.11395e+01  1.21558e+01 -4.08725e+00
       H  1.13537e+01  1.29746e+01 -4.51354e+00
       H  1.14519e+01  1.14913e+01 -4.67336e+00
       L -6.85858e+00 -2.39893e-01  2.58393e-01
       L -5.05132e-01  1.48414e+01  1.97456e+00
5
# CELL(abcABC):   23.46473    23.46473    23.46473    90.00000    90.00000    90.00000  Step:           9  Bead:       0 x_centroid{angstrom}  cell{atomic_unit}
       O  1.11407e+01  1.21570e+01 -4.08789e+00
       H  1.13466e+01  1.29642e+01 -4.50513e+00
       H  1.14398e+01  1.14829e+01 -4.67176e+00
       L -7.42505e+00 -1.11272e-02  6.52407e-01
       L -3.92450e-01  1.64102e+01  1.70519e+00
5
# CELL(abcABC):   23.46473    23.46473    23.46473    90.00000    90.00000    90.00000  Step:          10  Bead:       0 x_centroid{angstrom}  cell{atomic_unit}
       O  1.11419e+01  1.21581e+01 -4.08849e+00
       H  1.13397e+01  1.29550e+01 -4.49712e+00
       H  1.14277e+01  1.14742e+01 -4.67010e+00
       L -7.18880e+00  2.18938e-01  9.73497e-01
       L -2.35922e-01  1.61374e+01  1.24521e+00
