3
# CELL(abcABC):   35.23300    35.23300    35.23300    90.00000    90.00000    90.00000  Traj: positions{angstrom} Step:           8  Bead:       0 
       O -1.96649e+01  2.81536e+01 -4.02277e+01
       H -1.92002e+01  2.73195e+01 -4.03040e+01
       H -2.03258e+01  2.81244e+01 -4.09204e+01
