#Bead    Energy (eV)
0     -0.11109882108420299
1     -0.0943154626112268
2     -0.06365389758180684
3     -0.02814597370633024
4     -0.0034917385208372695
5     -0.0034917385208372642
6     -0.02814597370633021
7     -0.06365389758180683
8     -0.0943154626112268
9     -0.11109882108420309
