3
Lattice="40.0 0.0 0.0 0.0 40.0 0.0 0.0 0.0 40.0" Properties=species:S:1:pos:R:3:forces:R:3 energy=-2077.34221055 stress="0.0 0.0 0.0 0.0 0.0 0.0 0.0 0.0 0.0" pbc="T T T"
O      12.10002185      28.07266577      22.57586634      -6.43246041      -3.61374633      -6.87491149 
H      12.53680000      28.75610000      22.89930000       3.61344691       5.79671323       2.62871527 
H      11.49480000      28.56390000      21.65680000       2.81901350      -2.18296690       4.24619622 
3
Lattice="40.0 0.0 0.0 0.0 40.0 0.0 0.0 0.0 40.0" Properties=species:S:1:pos:R:3:forces:R:3 energy=-2077.68487327 stress="0.0 0.0 0.0 0.0 0.0 0.0 0.0 0.0 0.0" pbc="T T T"
O      12.07515976      28.07324027      22.54453670      -5.19897684      -1.89926910      -5.89174684 
H      12.53680000      28.75610000      22.89930000       2.54083396       3.97310371       1.88242669 
H      11.49480000      28.56390000      21.65680000       2.65814287      -2.07383461       4.00932015 
3
Lattice="40.0 0.0 0.0 0.0 40.0 0.0 0.0 0.0 40.0" Properties=species:S:1:pos:R:3:forces:R:3 energy=-2077.95271413 stress="0.0 0.0 0.0 0.0 0.0 0.0 0.0 0.0 0.0" pbc="T T T"
O      12.05223565      28.08199182      22.51294721      -4.23391956      -0.96626444      -4.98784328 
H      12.53680000      28.75610000      22.89930000       1.78718431       2.80359974       1.32102500 
H      11.49480000      28.56390000      21.65680000       2.44673525      -1.83733530       3.66681827 
3
Lattice="40.0 0.0 0.0 0.0 40.0 0.0 0.0 0.0 40.0" Properties=species:S:1:pos:R:3:forces:R:3 energy=-2078.16650654 stress="0.0 0.0 0.0 0.0 0.0 0.0 0.0 0.0 0.0" pbc="T T T"
O      12.03057937      28.09448921      22.48172509      -3.29984932      -0.45075702      -3.98638496 
H      12.53680000      28.75610000      22.89930000       1.15273839       1.93041258       0.81202532 
H      11.49480000      28.56390000      21.65680000       2.14711093      -1.47965556       3.17435964 
3
Lattice="40.0 0.0 0.0 0.0 40.0 0.0 0.0 0.0 40.0" Properties=species:S:1:pos:R:3:forces:R:3 energy=-2078.3263768 stress="0.0 0.0 0.0 0.0 0.0 0.0 0.0 0.0 0.0" pbc="T T T"
O      12.00964131      28.10882153      22.45080289      -2.28597271      -0.22867245      -2.78934176 
H      12.53680000      28.75610000      22.89930000       0.56281639       1.21531490       0.30729135 
H      11.49480000      28.56390000      21.65680000       1.72315631      -0.98664245       2.48205041 
3
Lattice="40.0 0.0 0.0 0.0 40.0 0.0 0.0 0.0 40.0" Properties=species:S:1:pos:R:3:forces:R:3 energy=-2078.42277633 stress="0.0 0.0 0.0 0.0 0.0 0.0 0.0 0.0 0.0" pbc="T T T"
O      11.98893564      28.12370318      22.41998387      -1.11548746      -0.25903721      -1.31303045 
H      12.53680000      28.75610000      22.89930000      -0.01847946       0.59096829      -0.21648324 
H      11.49480000      28.56390000      21.65680000       1.13396692      -0.33193108       1.52951369 
3
Lattice="40.0 0.0 0.0 0.0 40.0 0.0 0.0 0.0 40.0" Properties=species:S:1:pos:R:3:forces:R:3 energy=-2078.44341314 stress="0.0 0.0 0.0 0.0 0.0 0.0 0.0 0.0 0.0" pbc="T T T"
O      11.97107884      28.13492395      22.39392807       0.05457300      -0.44974554       0.21562296 
H      12.53680000      28.75610000      22.89930000      -0.53162392       0.08494515      -0.69386088 
H      11.49480000      28.56390000      21.65680000       0.47705091       0.36480039       0.47823792 
3
Lattice="40.0 0.0 0.0 0.0 40.0 0.0 0.0 0.0 40.0" Properties=species:S:1:pos:R:3:forces:R:3 energy=-2078.44526642 stress="0.0 0.0 0.0 0.0 0.0 0.0 0.0 0.0 0.0" pbc="T T T"
O      11.97392707      28.13079962      22.39884748      -0.14682395      -0.32191675      -0.07858126 
H      12.53680000      28.75610000      22.89930000      -0.47413077       0.12153112      -0.63378414 
H      11.49480000      28.56390000      21.65680000       0.62095472       0.20038563       0.71236540 
3
Lattice="40.0 0.0 0.0 0.0 40.0 0.0 0.0 0.0 40.0" Properties=species:S:1:pos:R:3:forces:R:3 energy=-2078.445983 stress="0.0 0.0 0.0 0.0 0.0 0.0 0.0 0.0 0.0" pbc="T T T"
O      11.97379553      28.12813103      22.39955549      -0.14321486      -0.22743952      -0.10498998 
H      12.53680000      28.75610000      22.89930000      -0.50499217       0.07123828      -0.65597797 
H      11.49480000      28.56390000      21.65680000       0.64820703       0.15620124       0.76096794 
3
Lattice="40.0 0.0 0.0 0.0 40.0 0.0 0.0 0.0 40.0" Properties=species:S:1:pos:R:3:forces:R:3 energy=-2078.44691125 stress="0.0 0.0 0.0 0.0 0.0 0.0 0.0 0.0 0.0" pbc="T T T"
O      11.97210114      28.12229853      22.39933935      -0.04542058      -0.01266786      -0.05275480 
H      12.53680000      28.75610000      22.89930000      -0.61756673      -0.08894783      -0.74457492 
H      11.49480000      28.56390000      21.65680000       0.66298730       0.10161569       0.79732972 
3
Lattice="40.0 0.0 0.0 0.0 40.0 0.0 0.0 0.0 40.0" Properties=species:S:1:pos:R:3:forces:R:3 energy=-2078.44694875 stress="0.0 0.0 0.0 0.0 0.0 0.0 0.0 0.0 0.0" pbc="T T T"
O      11.97152149      28.12195649      22.39872480      -0.00929945       0.00247092      -0.01244765 
H      12.53680000      28.75610000      22.89930000      -0.63970357      -0.11528199      -0.76369136 
H      11.49480000      28.56390000      21.65680000       0.64900302       0.11281107       0.77613900 
3
Lattice="40.0 0.0 0.0 0.0 40.0 0.0 0.0 0.0 40.0" Properties=species:S:1:pos:R:3:forces:R:3 energy=-2078.44694906 stress="0.0 0.0 0.0 0.0 0.0 0.0 0.0 0.0 0.0" pbc="T T T"
O      11.97137889      28.12203415      22.39852088      -0.00005799       0.00050955      -0.00022535 
H      12.53680000      28.75610000      22.89930000      -0.64362495      -0.11903075      -0.76737813 
H      11.49480000      28.56390000      21.65680000       0.64368294       0.11852120       0.76760348 
