3
Lattice="40.0 0.0 0.0 0.0 40.0 0.0 0.0 0.0 40.0" Properties=species:S:1:pos:R:3:forces:R:3 energy=-2077.62264624 stress="0.0 0.0 0.0 0.0 0.0 0.0 0.0 0.0 0.0" pbc="T T T"
O      12.10002185      28.07266578      22.57586634      -4.89582055      -1.39678053      -5.67635043 
H      12.55281502      28.78245593      22.91073439       2.15565570       3.51748452       1.54902494 
H      11.50336313      28.55787830      21.66949928       2.74016485      -2.12070400       4.12732549 
3
Lattice="40.0 0.0 0.0 0.0 40.0 0.0 0.0 0.0 40.0" Properties=species:S:1:pos:R:3:forces:R:3 energy=-2078.08470778 stress="0.0 0.0 0.0 0.0 0.0 0.0 0.0 0.0 0.0" pbc="T T T"
O      12.07714782      28.08158477      22.54428738      -3.49705676      -0.27976039      -4.28937840 
H      12.55686591      28.78880688      22.91373085       1.22723165       1.99970874       0.88265646 
H      11.52218627      28.54260836      21.69808177       2.26982512      -1.71994835       3.40672194 
3
Lattice="40.0 0.0 0.0 0.0 40.0 0.0 0.0 0.0 40.0" Properties=species:S:1:pos:R:3:forces:R:3 energy=-2078.39482413 stress="0.0 0.0 0.0 0.0 0.0 0.0 0.0 0.0 0.0" pbc="T T T"
O      12.05574819      28.09475987      22.51316709      -1.97562395      -0.21870798      -2.40364936 
H      12.55825230      28.79089250      22.91478306       0.63317400       1.11602105       0.42787257 
H      11.54219951      28.52734763      21.72814985       1.34244995      -0.89731306       1.97577679 
3
Lattice="40.0 0.0 0.0 0.0 40.0 0.0 0.0 0.0 40.0" Properties=species:S:1:pos:R:3:forces:R:3 energy=-2078.48208418 stress="0.0 0.0 0.0 0.0 0.0 0.0 0.0 0.0 0.0" pbc="T T T"
O      12.03443203      28.10616837      22.48272291       0.26235400      -0.88122875       0.61727155 
H      12.55821288      28.79276389      22.91412123       0.06585425       0.32824238      -0.02504766 
H      11.56355510      28.51406774      21.75925586      -0.32820824       0.55298638      -0.59222389 
3
Lattice="40.0 0.0 0.0 0.0 40.0 0.0 0.0 0.0 40.0" Properties=species:S:1:pos:R:3:forces:R:3 energy=-2078.49214798 stress="0.0 0.0 0.0 0.0 0.0 0.0 0.0 0.0 0.0" pbc="T T T"
O      12.03845101      28.09886219      22.49015101      -0.25171013      -0.38617740      -0.18894059 
H      12.55783900      28.79435780      22.91313009       0.09588391       0.31773733       0.01606853 
H      11.55990999      28.51978002      21.75281890       0.15582622       0.06844006       0.17287205 
3
Lattice="40.0 0.0 0.0 0.0 40.0 0.0 0.0 0.0 40.0" Properties=species:S:1:pos:R:3:forces:R:3 energy=-2078.49442168 stress="0.0 0.0 0.0 0.0 0.0 0.0 0.0 0.0 0.0" pbc="T T T"
O      12.03735557      28.09557004      22.48985608      -0.14249205      -0.24129462      -0.09955587 
H      12.55706825      28.79583101      22.91168161       0.03057782       0.18474702      -0.02219482 
H      11.56177618      28.52159896      21.75456231       0.11191423       0.05654760       0.12175069 
3
Lattice="40.0 0.0 0.0 0.0 40.0 0.0 0.0 0.0 40.0" Properties=species:S:1:pos:R:3:forces:R:3 energy=-2078.4964827 stress="0.0 0.0 0.0 0.0 0.0 0.0 0.0 0.0 0.0" pbc="T T T"
O      12.03543137      28.08841123      22.48978755       0.03680514       0.03765603       0.03372305 
H      12.55467419      28.79878846      22.90771297      -0.06340014      -0.05159589      -0.06253021 
H      11.56609445      28.52580030      21.75859948       0.02659500       0.01393986       0.02880716 
3
Lattice="40.0 0.0 0.0 0.0 40.0 0.0 0.0 0.0 40.0" Properties=species:S:1:pos:R:3:forces:R:3 energy=-2078.49658461 stress="0.0 0.0 0.0 0.0 0.0 0.0 0.0 0.0 0.0" pbc="T T T"
O      12.03543791      28.08784459      22.48998033       0.03357536       0.03529542       0.03044622 
H      12.55399623      28.79887701      22.90683463      -0.04738096      -0.04467031      -0.04472828 
H      11.56676586      28.52627840      21.75928504       0.01380561       0.00937489       0.01428206 
3
Lattice="40.0 0.0 0.0 0.0 40.0 0.0 0.0 0.0 40.0" Properties=species:S:1:pos:R:3:forces:R:3 energy=-2078.49666782 stress="0.0 0.0 0.0 0.0 0.0 0.0 0.0 0.0 0.0" pbc="T T T"
O      12.03567739      28.08731841      22.49044998       0.00529062       0.00489219       0.00495946 
H      12.55279282      28.79877001      22.90536220      -0.00354211      -0.00557225      -0.00260870 
H      11.56772979      28.52691158      21.76028782      -0.00174851       0.00068005      -0.00235076 
