3
Lattice="40.0 0.0 0.0 0.0 40.0 0.0 0.0 0.0 40.0" 0-fixed energy=-2078.49666782 stress="0.0 0.0 0.0 0.0 0.0 0.0 0.0 0.0 0.0" pbc="T T T"
O      12.03567739      28.08731841      22.49044998       0.00529062       0.00489219       0.00495946 
H      12.55279282      28.79877001      22.90536220      -0.00354211      -0.00557225      -0.00260870 
H      11.56772979      28.52691158      21.76028782      -0.00174851       0.00068005      -0.00235076 
3
Lattice="40.0 0.0 0.0 0.0 40.0 0.0 0.0 0.0 40.0" 1-fixed energy=-2078.4966679 stress="0.0 0.0 0.0 0.0 0.0 0.0 0.0 0.0 0.0" pbc="T T T"
O      12.01053927      28.06179749      22.46730914       0.00070535       0.00553548      -0.00102022 
H      12.53680000      28.75610000      22.89930000      -0.00239473      -0.00330692      -0.00189494 
H      11.55369552      28.52372574      21.74375327       0.00168938      -0.00222856       0.00291517 
3
Lattice="40.0 0.0 0.0 0.0 40.0 0.0 0.0 0.0 40.0" 2-fixed energy=-2078.44694906 stress="0.0 0.0 0.0 0.0 0.0 0.0 0.0 0.0 0.0" pbc="T T T"
O      11.97137889      28.12203415      22.39852088      -0.00005799       0.00050955      -0.00022535 
H      12.53680000      28.75610000      22.89930000      -0.64362495      -0.11903075      -0.76737813 
H      11.49480000      28.56390000      21.65680000       0.64368294       0.11852120       0.76760348 
3
Lattice="40.0 0.0 0.0 0.0 40.0 0.0 0.0 0.0 40.0" 3-fixed energy=-2076.8679009 stress="0.0 0.0 0.0 0.0 0.0 0.0 0.0 0.0 0.0" pbc="T T T"
O      12.12460000      28.09300000      22.60000000      -8.55608563      -7.07869962      -8.40135178 
H      12.53680000      28.75610000      22.89930000       5.57511023       9.17495984       3.98051114 
H      11.49480000      28.56390000      21.65680000       2.98097540      -2.09626022       4.42084064 
