3
Lattice="40.0 0.0 0.0 0.0 40.0 0.0 0.0 0.0 40.0" Properties=species:S:1:pos:R:3:forces:R:3 energy=-2076.867900903471 stress="0.0 0.0 0.0 0.0 0.0 0.0 0.0 0.0 0.0" pbc="T T T"
O      12.12460000      28.09300000      22.60000000      -8.55608563      -7.07869962      -8.40135178 
H      12.53680000      28.75610000      22.89930000       5.57511023       9.17495984       3.98051114 
H      11.49480000      28.56390000      21.65680000       2.98097540      -2.09626022       4.42084064 
