7
# CELL(abcABC):   25.29166    25.29166    25.29166    90.00000    90.00000    90.00000  Step:           0  Bead:       0 x_centroid{atomic_unit}  cell{atomic_unit}
       O  1.02130e+00 -1.84220e+00 -4.09276e-01
       O  5.52715e+00 -1.58596e+00  2.87988e-01
       H  3.47444e-01 -2.37735e+00 -2.03854e+00
       H  3.29434e+00 -1.71829e+00 -1.89719e-01
       H  6.23055e+00 -3.01079e+00  1.22313e+00
       H  6.67136e+00 -1.14921e+00 -1.08863e+00
       H  7.99951e-02 -3.68232e-01  1.74386e-01
7
# CELL(abcABC):   25.29166    25.29166    25.29166    90.00000    90.00000    90.00000  Step:           1  Bead:       0 x_centroid{atomic_unit}  cell{atomic_unit}
       O  1.02498e+00 -1.83625e+00 -4.14345e-01
       O  5.52516e+00 -1.59229e+00  2.82403e-01
       H  3.51409e-01 -2.37237e+00 -2.02682e+00
       H  3.29402e+00 -1.71822e+00 -1.87646e-01
       H  6.22604e+00 -3.00062e+00  1.21523e+00
       H  6.66395e+00 -1.15346e+00 -1.07838e+00
       H  8.65897e-02 -3.78816e-01  1.68890e-01
7
# CELL(abcABC):   25.29166    25.29166    25.29166    90.00000    90.00000    90.00000  Step:           2  Bead:       0 x_centroid{atomic_unit}  cell{atomic_unit}
       O  1.03561e+00 -1.83498e+00 -4.14045e-01
       O  5.51492e+00 -1.59366e+00  2.79494e-01
       H  3.52147e-01 -2.37070e+00 -2.02395e+00
       H  3.29379e+00 -1.71818e+00 -1.86154e-01
       H  6.22501e+00 -2.99817e+00  1.21277e+00
       H  6.66236e+00 -1.15493e+00 -1.07578e+00
       H  8.82915e-02 -3.81413e-01  1.66997e-01
7
# CELL(abcABC):   25.29166    25.29166    25.29166    90.00000    90.00000    90.00000  Step:           3  Bead:       0 x_centroid{atomic_unit}  cell{atomic_unit}
       O  1.04555e+00 -1.83365e+00 -4.14496e-01
       O  5.50554e+00 -1.59515e+00  2.76087e-01
       H  3.54991e-01 -2.37035e+00 -2.02120e+00
       H  3.29371e+00 -1.71817e+00 -1.85499e-01
       H  6.22193e+00 -2.99654e+00  1.21159e+00
       H  6.65884e+00 -1.15510e+00 -1.07404e+00
       H  9.15590e-02 -3.83080e-01  1.66892e-01
7
# CELL(abcABC):   25.29166    25.29166    25.29166    90.00000    90.00000    90.00000  Step:           4  Bead:       0 x_centroid{atomic_unit}  cell{atomic_unit}
       O  1.04765e+00 -1.83242e+00 -4.13921e-01
       O  5.50338e+00 -1.59635e+00  2.75990e-01
       H  3.57241e-01 -2.37161e+00 -2.02145e+00
       H  3.29382e+00 -1.71820e+00 -1.86162e-01
       H  6.21896e+00 -2.99622e+00  1.21185e+00
       H  6.65677e+00 -1.15387e+00 -1.07501e+00
       H  9.43075e-02 -3.83371e-01  1.68038e-01
7
# CELL(abcABC):   25.29166    25.29166    25.29166    90.00000    90.00000    90.00000  Step:           5  Bead:       0 x_centroid{atomic_unit}  cell{atomic_unit}
       O  1.05072e+00 -1.83176e+00 -4.14422e-01
       O  5.50060e+00 -1.59715e+00  2.74566e-01
       H  3.62450e-01 -2.37411e+00 -2.02121e+00
       H  3.29408e+00 -1.71826e+00 -1.87636e-01
       H  6.21316e+00 -2.99698e+00  1.21337e+00
       H  6.65178e+00 -1.15137e+00 -1.07652e+00
       H  9.93415e-02 -3.82419e-01  1.71182e-01
7
# CELL(abcABC):   25.29166    25.29166    25.29166    90.00000    90.00000    90.00000  Step:           6  Bead:       0 x_centroid{atomic_unit}  cell{atomic_unit}
       O  1.05052e+00 -1.83376e+00 -4.13439e-01
       O  5.50026e+00 -1.59501e+00  2.75399e-01
       H  3.66461e-01 -2.37538e+00 -2.02143e+00
       H  3.29434e+00 -1.71833e+00 -1.89111e-01
       H  6.20784e+00 -2.99837e+00  1.21340e+00
       H  6.64820e+00 -1.15009e+00 -1.07815e+00
       H  1.04519e-01 -3.81099e-01  1.72656e-01
7
# CELL(abcABC):   25.29166    25.29166    25.29166    90.00000    90.00000    90.00000  Step:           7  Bead:       0 x_centroid{atomic_unit}  cell{atomic_unit}
       O  1.05057e+00 -1.83648e+00 -4.12173e-01
       O  5.50073e+00 -1.59282e+00  2.76443e-01
       H  3.68082e-01 -2.37553e+00 -2.02182e+00
       H  3.29438e+00 -1.71836e+00 -1.89463e-01
       H  6.20453e+00 -2.99889e+00  1.21221e+00
       H  6.64633e+00 -1.15008e+00 -1.07860e+00
       H  1.07507e-01 -3.79897e-01  1.72718e-01
7
# CELL(abcABC):   25.29166    25.29166    25.29166    90.00000    90.00000    90.00000  Step:           8  Bead:       0 x_centroid{atomic_unit}  cell{atomic_unit}
       O  1.04986e+00 -1.83810e+00 -4.11175e-01
       O  5.50038e+00 -1.59054e+00  2.77320e-01
       H  3.69019e-01 -2.37525e+00 -2.02174e+00
       H  3.29439e+00 -1.71837e+00 -1.89466e-01
       H  6.20284e+00 -2.99972e+00  1.21135e+00
       H  6.64574e+00 -1.15029e+00 -1.07906e+00
       H  1.09890e-01 -3.79800e-01  1.72101e-01
7
# CELL(abcABC):   25.29166    25.29166    25.29166    90.00000    90.00000    90.00000  Step:           9  Bead:       0 x_centroid{atomic_unit}  cell{atomic_unit}
       O  1.04978e+00 -1.83933e+00 -4.10541e-01
       O  5.50011e+00 -1.58942e+00  2.78129e-01
       H  3.69066e-01 -2.37478e+00 -2.02163e+00
       H  3.29433e+00 -1.71834e+00 -1.89092e-01
       H  6.20210e+00 -2.99976e+00  1.21028e+00
       H  6.64584e+00 -1.15068e+00 -1.07915e+00
       H  1.10886e-01 -3.79750e-01  1.71341e-01
7
# CELL(abcABC):   25.29166    25.29166    25.29166    90.00000    90.00000    90.00000  Step:          10  Bead:       0 x_centroid{atomic_unit}  cell{atomic_unit}
       O  1.05003e+00 -1.84033e+00 -4.09479e-01
       O  5.49992e+00 -1.58815e+00  2.78523e-01
       H  3.68729e-01 -2.37434e+00 -2.02186e+00
       H  3.29420e+00 -1.71834e+00 -1.88393e-01
       H  6.20157e+00 -2.99979e+00  1.20906e+00
       H  6.64584e+00 -1.15126e+00 -1.07881e+00
       H  1.11795e-01 -3.79855e-01  1.70304e-01
7
# CELL(abcABC):   25.29166    25.29166    25.29166    90.00000    90.00000    90.00000  Step:          11  Bead:       0 x_centroid{atomic_unit}  cell{atomic_unit}
       O  1.05002e+00 -1.84008e+00 -4.09941e-01
       O  5.49989e+00 -1.58865e+00  2.78462e-01
       H  3.68788e-01 -2.37442e+00 -2.02166e+00
       H  3.29421e+00 -1.71833e+00 -1.88425e-01
       H  6.20179e+00 -2.99970e+00  1.20929e+00
       H  6.64595e+00 -1.15109e+00 -1.07891e+00
       H  1.11447e-01 -3.79806e-01  1.70522e-01
7
# CELL(abcABC):   25.29166    25.29166    25.29166    90.00000    90.00000    90.00000  Step:          12  Bead:       0 x_centroid{atomic_unit}  cell{atomic_unit}
       O  1.05003e+00 -1.84004e+00 -4.09949e-01
       O  5.49989e+00 -1.58868e+00  2.78448e-01
       H  3.68832e-01 -2.37447e+00 -2.02167e+00
       H  3.29421e+00 -1.71833e+00 -1.88402e-01
       H  6.20175e+00 -2.99972e+00  1.20930e+00
       H  6.64590e+00 -1.15104e+00 -1.07893e+00
       H  1.11481e-01 -3.79785e-01  1.70540e-01
7
# CELL(abcABC):   25.29166    25.29166    25.29166    90.00000    90.00000    90.00000  Step:          13  Bead:       0 x_centroid{atomic_unit}  cell{atomic_unit}
       O  1.05011e+00 -1.83992e+00 -4.10006e-01
       O  5.49983e+00 -1.58877e+00  2.78343e-01
       H  3.69078e-01 -2.37480e+00 -2.02164e+00
       H  3.29414e+00 -1.71831e+00 -1.87969e-01
       H  6.20160e+00 -2.99994e+00  1.20916e+00
       H  6.64564e+00 -1.15074e+00 -1.07898e+00
       H  1.11708e-01 -3.79576e-01  1.70447e-01
7
# CELL(abcABC):   25.29166    25.29166    25.29166    90.00000    90.00000    90.00000  Step:          14  Bead:       0 x_centroid{atomic_unit}  cell{atomic_unit}
       O  1.05011e+00 -1.83980e+00 -4.09932e-01
       O  5.49980e+00 -1.58889e+00  2.78442e-01
       H  3.69204e-01 -2.37502e+00 -2.02157e+00
       H  3.29407e+00 -1.71830e+00 -1.87580e-01
       H  6.20160e+00 -3.00010e+00  1.20887e+00
       H  6.64551e+00 -1.15051e+00 -1.07900e+00
       H  1.11816e-01 -3.79434e-01  1.70158e-01
7
# CELL(abcABC):   25.29166    25.29166    25.29166    90.00000    90.00000    90.00000  Step:          15  Bead:       0 x_centroid{atomic_unit}  cell{atomic_unit}
       O  1.05011e+00 -1.83981e+00 -4.09866e-01
       O  5.49979e+00 -1.58888e+00  2.78512e-01
       H  3.69267e-01 -2.37514e+00 -2.02148e+00
       H  3.29402e+00 -1.71829e+00 -1.87301e-01
       H  6.20166e+00 -3.00027e+00  1.20862e+00
       H  6.64542e+00 -1.15039e+00 -1.07897e+00
       H  1.11836e-01 -3.79276e-01  1.69898e-01
7
# CELL(abcABC):   25.29166    25.29166    25.29166    90.00000    90.00000    90.00000  Step:          16  Bead:       0 x_centroid{atomic_unit}  cell{atomic_unit}
       O  1.04998e+00 -1.83949e+00 -4.09428e-01
       O  5.49981e+00 -1.58912e+00  2.79015e-01
       H  3.69867e-01 -2.37624e+00 -2.02083e+00
       H  3.29369e+00 -1.71823e+00 -1.85629e-01
       H  6.20250e+00 -3.00160e+00  1.20707e+00
       H  6.64464e+00 -1.14930e+00 -1.07874e+00
       H  1.11617e-01 -3.78054e-01  1.68110e-01
7
# CELL(abcABC):   25.29166    25.29166    25.29166    90.00000    90.00000    90.00000  Step:          17  Bead:       0 x_centroid{atomic_unit}  cell{atomic_unit}
       O  1.04984e+00 -1.83907e+00 -4.08642e-01
       O  5.50001e+00 -1.58966e+00  2.79819e-01
       H  3.70775e-01 -2.37780e+00 -2.02000e+00
       H  3.29338e+00 -1.71817e+00 -1.83904e-01
       H  6.20359e+00 -3.00329e+00  1.20497e+00
       H  6.64336e+00 -1.14780e+00 -1.07829e+00
       H  1.11167e-01 -3.76181e-01  1.65819e-01
7
# CELL(abcABC):   25.29166    25.29166    25.29166    90.00000    90.00000    90.00000  Step:          18  Bead:       0 x_centroid{atomic_unit}  cell{atomic_unit}
       O  1.04949e+00 -1.83857e+00 -4.08094e-01
       O  5.49997e+00 -1.58992e+00  2.80398e-01
       H  3.71402e-01 -2.37878e+00 -2.01929e+00
       H  3.29323e+00 -1.71815e+00 -1.83020e-01
       H  6.20460e+00 -3.00460e+00  1.20372e+00
       H  6.64264e+00 -1.14679e+00 -1.07800e+00
       H  1.10810e-01 -3.75104e-01  1.64194e-01
7
# CELL(abcABC):   25.29166    25.29166    25.29166    90.00000    90.00000    90.00000  Step:          19  Bead:       0 x_centroid{atomic_unit}  cell{atomic_unit}
       O  1.04931e+00 -1.83821e+00 -4.07824e-01
       O  5.49995e+00 -1.59027e+00  2.80758e-01
       H  3.71904e-01 -2.37945e+00 -2.01881e+00
       H  3.29323e+00 -1.71814e+00 -1.82867e-01
       H  6.20508e+00 -3.00533e+00  1.20310e+00
       H  6.64210e+00 -1.14608e+00 -1.07782e+00
       H  1.10598e-01 -3.74389e-01  1.63438e-01
7
# CELL(abcABC):   25.29166    25.29166    25.29166    90.00000    90.00000    90.00000  Step:          20  Bead:       0 x_centroid{atomic_unit}  cell{atomic_unit}
       O  1.04935e+00 -1.83784e+00 -4.07468e-01
       O  5.49988e+00 -1.59052e+00  2.80863e-01
       H  3.72173e-01 -2.37998e+00 -2.01858e+00
       H  3.29329e+00 -1.71818e+00 -1.83099e-01
       H  6.20526e+00 -3.00581e+00  1.20281e+00
       H  6.64167e+00 -1.14555e+00 -1.07756e+00
       H  1.10559e-01 -3.73959e-01  1.63046e-01
7
# CELL(abcABC):   25.29166    25.29166    25.29166    90.00000    90.00000    90.00000  Step:          21  Bead:       0 x_centroid{atomic_unit}  cell{atomic_unit}
       O  1.04938e+00 -1.83798e+00 -4.07642e-01
       O  5.49987e+00 -1.59050e+00  2.80816e-01
       H  3.72095e-01 -2.37981e+00 -2.01859e+00
       H  3.29331e+00 -1.71817e+00 -1.83215e-01
       H  6.20509e+00 -3.00560e+00  1.20297e+00
       H  6.64183e+00 -1.14569e+00 -1.07762e+00
       H  1.10624e-01 -3.74100e-01  1.63280e-01
7
# CELL(abcABC):   25.29166    25.29166    25.29166    90.00000    90.00000    90.00000  Step:          22  Bead:       0 x_centroid{atomic_unit}  cell{atomic_unit}
       O  1.04941e+00 -1.83797e+00 -4.07642e-01
       O  5.49983e+00 -1.59054e+00  2.80829e-01
       H  3.72114e-01 -2.37991e+00 -2.01849e+00
       H  3.29330e+00 -1.71818e+00 -1.83168e-01
       H  6.20506e+00 -3.00568e+00  1.20287e+00
       H  6.64179e+00 -1.14557e+00 -1.07757e+00
       H  1.10663e-01 -3.74007e-01  1.63185e-01
7
# CELL(abcABC):   25.29166    25.29166    25.29166    90.00000    90.00000    90.00000  Step:          23  Bead:       0 x_centroid{atomic_unit}  cell{atomic_unit}
       O  1.04959e+00 -1.83797e+00 -4.07700e-01
       O  5.49970e+00 -1.59060e+00  2.80737e-01
       H  3.72009e-01 -2.38009e+00 -2.01826e+00
       H  3.29333e+00 -1.71820e+00 -1.83287e-01
       H  6.20477e+00 -3.00577e+00  1.20277e+00
       H  6.64186e+00 -1.14530e+00 -1.07739e+00
       H  1.10909e-01 -3.73919e-01  1.63138e-01
7
# CELL(abcABC):   25.29166    25.29166    25.29166    90.00000    90.00000    90.00000  Step:          24  Bead:       0 x_centroid{atomic_unit}  cell{atomic_unit}
       O  1.04968e+00 -1.83780e+00 -4.07513e-01
       O  5.49958e+00 -1.59080e+00  2.80845e-01
       H  3.72054e-01 -2.38077e+00 -2.01771e+00
       H  3.29332e+00 -1.71822e+00 -1.83157e-01
       H  6.20477e+00 -3.00640e+00  1.20214e+00
       H  6.64168e+00 -1.14453e+00 -1.07698e+00
       H  1.11089e-01 -3.73320e-01  1.62461e-01
7
# CELL(abcABC):   25.29166    25.29166    25.29166    90.00000    90.00000    90.00000  Step:          25  Bead:       0 x_centroid{atomic_unit}  cell{atomic_unit}
       O  1.04980e+00 -1.83700e+00 -4.06599e-01
       O  5.49916e+00 -1.59171e+00  2.81517e-01
       H  3.71837e-01 -2.38433e+00 -2.01505e+00
       H  3.29325e+00 -1.71830e+00 -1.82274e-01
       H  6.20452e+00 -3.00948e+00  1.19873e+00
       H  6.64124e+00 -1.14058e+00 -1.07493e+00
       H  1.12319e-01 -3.70436e-01  1.58983e-01
7
# CELL(abcABC):   25.29166    25.29166    25.29166    90.00000    90.00000    90.00000  Step:          26  Bead:       0 x_centroid{atomic_unit}  cell{atomic_unit}
       O  1.04972e+00 -1.83677e+00 -4.06085e-01
       O  5.49913e+00 -1.59186e+00  2.81739e-01
       H  3.71652e-01 -2.38621e+00 -2.01381e+00
       H  3.29325e+00 -1.71832e+00 -1.81930e-01
       H  6.20472e+00 -3.01136e+00  1.19709e+00
       H  6.64096e+00 -1.13864e+00 -1.07372e+00
       H  1.12681e-01 -3.68677e-01  1.57253e-01
7
# CELL(abcABC):   25.29166    25.29166    25.29166    90.00000    90.00000    90.00000  Step:          27  Bead:       0 x_centroid{atomic_unit}  cell{atomic_unit}
       O  1.04952e+00 -1.83688e+00 -4.06130e-01
       O  5.49929e+00 -1.59173e+00  2.81802e-01
       H  3.71547e-01 -2.38578e+00 -2.01424e+00
       H  3.29325e+00 -1.71829e+00 -1.82013e-01
       H  6.20481e+00 -3.01094e+00  1.19744e+00
       H  6.64117e+00 -1.13918e+00 -1.07402e+00
       H  1.12519e-01 -3.69065e-01  1.57655e-01
7
# CELL(abcABC):   25.29166    25.29166    25.29166    90.00000    90.00000    90.00000  Step:          28  Bead:       0 x_centroid{atomic_unit}  cell{atomic_unit}
       O  1.04922e+00 -1.83688e+00 -4.05936e-01
       O  5.49945e+00 -1.59171e+00  2.82071e-01
       H  3.71185e-01 -2.38634e+00 -2.01397e+00
       H  3.29327e+00 -1.71827e+00 -1.82061e-01
       H  6.20490e+00 -3.01140e+00  1.19691e+00
       H  6.64142e+00 -1.13868e+00 -1.07366e+00
       H  1.12651e-01 -3.68606e-01  1.57188e-01
7
# CELL(abcABC):   25.29166    25.29166    25.29166    90.00000    90.00000    90.00000  Step:          29  Bead:       0 x_centroid{atomic_unit}  cell{atomic_unit}
       O  1.04905e+00 -1.83676e+00 -4.05645e-01
       O  5.49949e+00 -1.59183e+00  2.82380e-01
       H  3.70766e-01 -2.38748e+00 -2.01319e+00
       H  3.29329e+00 -1.71825e+00 -1.82114e-01
       H  6.20492e+00 -3.01239e+00  1.19586e+00
       H  6.64157e+00 -1.13754e+00 -1.07287e+00
       H  1.12984e-01 -3.67666e-01  1.56201e-01
7
# CELL(abcABC):   25.29166    25.29166    25.29166    90.00000    90.00000    90.00000  Step:          30  Bead:       0 x_centroid{atomic_unit}  cell{atomic_unit}
       O  1.04890e+00 -1.83648e+00 -4.05357e-01
       O  5.49946e+00 -1.59198e+00  2.82799e-01
       H  3.69990e-01 -2.38900e+00 -2.01192e+00
       H  3.29327e+00 -1.71822e+00 -1.82461e-01
       H  6.20509e+00 -3.01371e+00  1.19447e+00
       H  6.64190e+00 -1.13604e+00 -1.07161e+00
       H  1.13393e-01 -3.66545e-01  1.54824e-01
7
# CELL(abcABC):   25.29166    25.29166    25.29166    90.00000    90.00000    90.00000  Step:          31  Bead:       0 x_centroid{atomic_unit}  cell{atomic_unit}
       O  1.04898e+00 -1.83640e+00 -4.05239e-01
       O  5.49947e+00 -1.59212e+00  2.82970e-01
       H  3.69652e-01 -2.38965e+00 -2.01143e+00
       H  3.29325e+00 -1.71820e+00 -1.82608e-01
       H  6.20512e+00 -3.01421e+00  1.19388e+00
       H  6.64201e+00 -1.13540e+00 -1.07108e+00
       H  1.13493e-01 -3.66005e-01  1.54301e-01
7
# CELL(abcABC):   25.29166    25.29166    25.29166    90.00000    90.00000    90.00000  Step:          32  Bead:       0 x_centroid{atomic_unit}  cell{atomic_unit}
       O  1.04908e+00 -1.83634e+00 -4.05320e-01
       O  5.49945e+00 -1.59214e+00  2.82899e-01
       H  3.69620e-01 -2.38957e+00 -2.01143e+00
       H  3.29324e+00 -1.71821e+00 -1.82703e-01
       H  6.20512e+00 -3.01411e+00  1.19401e+00
       H  6.64201e+00 -1.13548e+00 -1.07108e+00
       H  1.13453e-01 -3.66128e-01  1.54413e-01
7
# CELL(abcABC):   25.29166    25.29166    25.29166    90.00000    90.00000    90.00000  Step:          33  Bead:       0 x_centroid{atomic_unit}  cell{atomic_unit}
       O  1.04925e+00 -1.83620e+00 -4.05544e-01
       O  5.49939e+00 -1.59222e+00  2.82770e-01
       H  3.69459e-01 -2.38952e+00 -2.01140e+00
       H  3.29320e+00 -1.71820e+00 -1.82923e-01
       H  6.20513e+00 -3.01397e+00  1.19426e+00
       H  6.64215e+00 -1.13555e+00 -1.07104e+00
       H  1.13373e-01 -3.66308e-01  1.54656e-01
7
# CELL(abcABC):   25.29166    25.29166    25.29166    90.00000    90.00000    90.00000  Step:          34  Bead:       0 x_centroid{atomic_unit}  cell{atomic_unit}
       O  1.04933e+00 -1.83597e+00 -4.05632e-01
       O  5.49943e+00 -1.59237e+00  2.82686e-01
       H  3.69173e-01 -2.38986e+00 -2.01119e+00
       H  3.29319e+00 -1.71821e+00 -1.83111e-01
       H  6.20511e+00 -3.01412e+00  1.19419e+00
       H  6.64229e+00 -1.13525e+00 -1.07074e+00
       H  1.13422e-01 -3.66204e-01  1.54605e-01
7
# CELL(abcABC):   25.29166    25.29166    25.29166    90.00000    90.00000    90.00000  Step:          35  Bead:       0 x_centroid{atomic_unit}  cell{atomic_unit}
       O  1.04932e+00 -1.83593e+00 -4.05741e-01
       O  5.49943e+00 -1.59242e+00  2.82631e-01
       H  3.69128e-01 -2.38984e+00 -2.01124e+00
       H  3.29319e+00 -1.71821e+00 -1.83150e-01
       H  6.20508e+00 -3.01404e+00  1.19433e+00
       H  6.64238e+00 -1.13528e+00 -1.07080e+00
       H  1.13392e-01 -3.66269e-01  1.54765e-01
7
# CELL(abcABC):   25.29166    25.29166    25.29166    90.00000    90.00000    90.00000  Step:          36  Bead:       0 x_centroid{atomic_unit}  cell{atomic_unit}
       O  1.04927e+00 -1.83586e+00 -4.05805e-01
       O  5.49945e+00 -1.59250e+00  2.82601e-01
       H  3.68941e-01 -2.39009e+00 -2.01115e+00
       H  3.29322e+00 -1.71821e+00 -1.83221e-01
       H  6.20507e+00 -3.01417e+00  1.19430e+00
       H  6.64256e+00 -1.13505e+00 -1.07066e+00
       H  1.13412e-01 -3.66126e-01  1.54758e-01
7
# CELL(abcABC):   25.29166    25.29166    25.29166    90.00000    90.00000    90.00000  Step:          37  Bead:       0 x_centroid{atomic_unit}  cell{atomic_unit}
       O  1.04924e+00 -1.83583e+00 -4.05777e-01
       O  5.49946e+00 -1.59254e+00  2.82629e-01
       H  3.68830e-01 -2.39024e+00 -2.01103e+00
       H  3.29324e+00 -1.71821e+00 -1.83271e-01
       H  6.20506e+00 -3.01427e+00  1.19416e+00
       H  6.64264e+00 -1.13489e+00 -1.07051e+00
       H  1.13447e-01 -3.66010e-01  1.54632e-01
7
# CELL(abcABC):   25.29166    25.29166    25.29166    90.00000    90.00000    90.00000  Step:          38  Bead:       0 x_centroid{atomic_unit}  cell{atomic_unit}
       O  1.04922e+00 -1.83578e+00 -4.05747e-01
       O  5.49947e+00 -1.59260e+00  2.82642e-01
       H  3.68632e-01 -2.39048e+00 -2.01084e+00
       H  3.29327e+00 -1.71821e+00 -1.83374e-01
       H  6.20507e+00 -3.01444e+00  1.19399e+00
       H  6.64277e+00 -1.13465e+00 -1.07028e+00
       H  1.13490e-01 -3.65849e-01  1.54464e-01
7
# CELL(abcABC):   25.29166    25.29166    25.29166    90.00000    90.00000    90.00000  Step:          39  Bead:       0 x_centroid{atomic_unit}  cell{atomic_unit}
       O  1.04918e+00 -1.83587e+00 -4.05724e-01
       O  5.49947e+00 -1.59254e+00  2.82566e-01
       H  3.68655e-01 -2.39023e+00 -2.01097e+00
       H  3.29333e+00 -1.71823e+00 -1.83387e-01
       H  6.20506e+00 -3.01428e+00  1.19415e+00
       H  6.64282e+00 -1.13484e+00 -1.07037e+00
       H  1.13436e-01 -3.65997e-01  1.54575e-01
7
# CELL(abcABC):   25.29166    25.29166    25.29166    90.00000    90.00000    90.00000  Step:          40  Bead:       0 x_centroid{atomic_unit}  cell{atomic_unit}
       O  1.04919e+00 -1.83597e+00 -4.05757e-01
       O  5.49948e+00 -1.59250e+00  2.82461e-01
       H  3.68708e-01 -2.38990e+00 -2.01117e+00
       H  3.29338e+00 -1.71824e+00 -1.83398e-01
       H  6.20502e+00 -3.01402e+00  1.19443e+00
       H  6.64285e+00 -1.13513e+00 -1.07055e+00
       H  1.13349e-01 -3.66227e-01  1.54817e-01
7
# CELL(abcABC):   25.29166    25.29166    25.29166    90.00000    90.00000    90.00000  Step:          41  Bead:       0 x_centroid{atomic_unit}  cell{atomic_unit}
       O  1.04918e+00 -1.83600e+00 -4.05842e-01
       O  5.49949e+00 -1.59249e+00  2.82325e-01
       H  3.68679e-01 -2.38960e+00 -2.01137e+00
       H  3.29343e+00 -1.71827e+00 -1.83479e-01
       H  6.20495e+00 -3.01374e+00  1.19477e+00
       H  6.64298e+00 -1.13539e+00 -1.07072e+00
       H  1.13291e-01 -3.66503e-01  1.55120e-01
7
# CELL(abcABC):   25.29166    25.29166    25.29166    90.00000    90.00000    90.00000  Step:          42  Bead:       0 x_centroid{atomic_unit}  cell{atomic_unit}
       O  1.04919e+00 -1.83604e+00 -4.05888e-01
       O  5.49950e+00 -1.59248e+00  2.82268e-01
       H  3.68682e-01 -2.38945e+00 -2.01146e+00
       H  3.29346e+00 -1.71827e+00 -1.83514e-01
       H  6.20492e+00 -3.01360e+00  1.19493e+00
       H  6.64302e+00 -1.13552e+00 -1.07080e+00
       H  1.13255e-01 -3.66629e-01  1.55273e-01
7
# CELL(abcABC):   25.29166    25.29166    25.29166    90.00000    90.00000    90.00000  Step:          43  Bead:       0 x_centroid{atomic_unit}  cell{atomic_unit}
       O  1.04921e+00 -1.83604e+00 -4.05891e-01
       O  5.49950e+00 -1.59248e+00  2.82302e-01
       H  3.68669e-01 -2.38951e+00 -2.01143e+00
       H  3.29344e+00 -1.71826e+00 -1.83538e-01
       H  6.20493e+00 -3.01363e+00  1.19488e+00
       H  6.64301e+00 -1.13549e+00 -1.07077e+00
       H  1.13270e-01 -3.66580e-01  1.55259e-01
7
# CELL(abcABC):   25.29166    25.29166    25.29166    90.00000    90.00000    90.00000  Step:          44  Bead:       0 x_centroid{atomic_unit}  cell{atomic_unit}
       O  1.04921e+00 -1.83607e+00 -4.05898e-01
       O  5.49950e+00 -1.59245e+00  2.82300e-01
       H  3.68691e-01 -2.38945e+00 -2.01148e+00
       H  3.29344e+00 -1.71825e+00 -1.83551e-01
       H  6.20492e+00 -3.01358e+00  1.19493e+00
       H  6.64300e+00 -1.13557e+00 -1.07082e+00
       H  1.13270e-01 -3.66629e-01  1.55319e-01
7
# CELL(abcABC):   25.29166    25.29166    25.29166    90.00000    90.00000    90.00000  Step:          45  Bead:       0 x_centroid{atomic_unit}  cell{atomic_unit}
       O  1.04924e+00 -1.83609e+00 -4.05945e-01
       O  5.49950e+00 -1.59238e+00  2.82317e-01
       H  3.68690e-01 -2.38940e+00 -2.01152e+00
       H  3.29343e+00 -1.71824e+00 -1.83626e-01
       H  6.20488e+00 -3.01353e+00  1.19495e+00
       H  6.64299e+00 -1.13568e+00 -1.07083e+00
       H  1.13339e-01 -3.66691e-01  1.55434e-01
7
# CELL(abcABC):   25.29166    25.29166    25.29166    90.00000    90.00000    90.00000  Step:          46  Bead:       0 x_centroid{atomic_unit}  cell{atomic_unit}
       O  1.04925e+00 -1.83609e+00 -4.05930e-01
       O  5.49949e+00 -1.59236e+00  2.82356e-01
       H  3.68670e-01 -2.38944e+00 -2.01151e+00
       H  3.29342e+00 -1.71823e+00 -1.83646e-01
       H  6.20488e+00 -3.01355e+00  1.19492e+00
       H  6.64299e+00 -1.13567e+00 -1.07081e+00
       H  1.13375e-01 -3.66675e-01  1.55422e-01
7
# CELL(abcABC):   25.29166    25.29166    25.29166    90.00000    90.00000    90.00000  Step:          47  Bead:       0 x_centroid{atomic_unit}  cell{atomic_unit}
       O  1.04925e+00 -1.83608e+00 -4.05941e-01
       O  5.49949e+00 -1.59237e+00  2.82347e-01
       H  3.68644e-01 -2.38946e+00 -2.01149e+00
       H  3.29342e+00 -1.71823e+00 -1.83656e-01
       H  6.20487e+00 -3.01357e+00  1.19492e+00
       H  6.64301e+00 -1.13564e+00 -1.07079e+00
       H  1.13379e-01 -3.66667e-01  1.55415e-01
7
# CELL(abcABC):   25.29166    25.29166    25.29166    90.00000    90.00000    90.00000  Step:          48  Bead:       0 x_centroid{atomic_unit}  cell{atomic_unit}
       O  1.04927e+00 -1.83607e+00 -4.05986e-01
       O  5.49950e+00 -1.59237e+00  2.82306e-01
       H  3.68582e-01 -2.38943e+00 -2.01149e+00
       H  3.29344e+00 -1.71825e+00 -1.83704e-01
       H  6.20484e+00 -3.01354e+00  1.19498e+00
       H  6.64308e+00 -1.13565e+00 -1.07079e+00
       H  1.13385e-01 -3.66710e-01  1.55475e-01
7
# CELL(abcABC):   25.29166    25.29166    25.29166    90.00000    90.00000    90.00000  Step:          49  Bead:       0 x_centroid{atomic_unit}  cell{atomic_unit}
       O  1.04929e+00 -1.83607e+00 -4.06016e-01
       O  5.49952e+00 -1.59237e+00  2.82303e-01
       H  3.68519e-01 -2.38944e+00 -2.01149e+00
       H  3.29344e+00 -1.71824e+00 -1.83766e-01
       H  6.20480e+00 -3.01352e+00  1.19500e+00
       H  6.64313e+00 -1.13565e+00 -1.07076e+00
       H  1.13420e-01 -3.66730e-01  1.55517e-01
7
# CELL(abcABC):   25.29166    25.29166    25.29166    90.00000    90.00000    90.00000  Step:          50  Bead:       0 x_centroid{atomic_unit}  cell{atomic_unit}
       O  1.04930e+00 -1.83607e+00 -4.06014e-01
       O  5.49952e+00 -1.59236e+00  2.82313e-01
       H  3.68513e-01 -2.38944e+00 -2.01149e+00
       H  3.29344e+00 -1.71824e+00 -1.83781e-01
       H  6.20479e+00 -3.01353e+00  1.19500e+00
       H  6.64313e+00 -1.13566e+00 -1.07076e+00
       H  1.13433e-01 -3.66731e-01  1.55525e-01
7
# CELL(abcABC):   25.29166    25.29166    25.29166    90.00000    90.00000    90.00000  Step:          51  Bead:       0 x_centroid{atomic_unit}  cell{atomic_unit}
       O  1.04930e+00 -1.83610e+00 -4.06004e-01
       O  5.49951e+00 -1.59232e+00  2.82335e-01
       H  3.68521e-01 -2.38942e+00 -2.01151e+00
       H  3.29344e+00 -1.71823e+00 -1.83801e-01
       H  6.20478e+00 -3.01352e+00  1.19500e+00
       H  6.64312e+00 -1.13569e+00 -1.07076e+00
       H  1.13456e-01 -3.66740e-01  1.55542e-01
7
# CELL(abcABC):   25.29166    25.29166    25.29166    90.00000    90.00000    90.00000  Step:          52  Bead:       0 x_centroid{atomic_unit}  cell{atomic_unit}
       O  1.04929e+00 -1.83610e+00 -4.05996e-01
       O  5.49951e+00 -1.59233e+00  2.82335e-01
       H  3.68542e-01 -2.38941e+00 -2.01151e+00
       H  3.29344e+00 -1.71823e+00 -1.83783e-01
       H  6.20479e+00 -3.01352e+00  1.19500e+00
       H  6.64311e+00 -1.13569e+00 -1.07078e+00
       H  1.13445e-01 -3.66741e-01  1.55532e-01
7
# CELL(abcABC):   25.29166    25.29166    25.29166    90.00000    90.00000    90.00000  Step:          53  Bead:       0 x_centroid{atomic_unit}  cell{atomic_unit}
       O  1.04928e+00 -1.83611e+00 -4.05997e-01
       O  5.49951e+00 -1.59234e+00  2.82320e-01
       H  3.68545e-01 -2.38939e+00 -2.01151e+00
       H  3.29344e+00 -1.71824e+00 -1.83775e-01
       H  6.20479e+00 -3.01351e+00  1.19501e+00
       H  6.64312e+00 -1.13570e+00 -1.07078e+00
       H  1.13434e-01 -3.66752e-01  1.55534e-01
7
# CELL(abcABC):   25.29166    25.29166    25.29166    90.00000    90.00000    90.00000  Step:          54  Bead:       0 x_centroid{atomic_unit}  cell{atomic_unit}
       O  1.04928e+00 -1.83611e+00 -4.05992e-01
       O  5.49952e+00 -1.59233e+00  2.82319e-01
       H  3.68546e-01 -2.38939e+00 -2.01152e+00
       H  3.29344e+00 -1.71824e+00 -1.83778e-01
       H  6.20478e+00 -3.01351e+00  1.19501e+00
       H  6.64312e+00 -1.13570e+00 -1.07079e+00
       H  1.13437e-01 -3.66754e-01  1.55537e-01
7
# CELL(abcABC):   25.29166    25.29166    25.29166    90.00000    90.00000    90.00000  Step:          55  Bead:       0 x_centroid{atomic_unit}  cell{atomic_unit}
       O  1.04928e+00 -1.83613e+00 -4.05982e-01
       O  5.49952e+00 -1.59232e+00  2.82321e-01
       H  3.68552e-01 -2.38937e+00 -2.01153e+00
       H  3.29344e+00 -1.71823e+00 -1.83783e-01
       H  6.20477e+00 -3.01350e+00  1.19501e+00
       H  6.64311e+00 -1.13572e+00 -1.07079e+00
       H  1.13446e-01 -3.66764e-01  1.55546e-01
7
# CELL(abcABC):   25.29166    25.29166    25.29166    90.00000    90.00000    90.00000  Step:          56  Bead:       0 x_centroid{atomic_unit}  cell{atomic_unit}
       O  1.04928e+00 -1.83615e+00 -4.05979e-01
       O  5.49952e+00 -1.59231e+00  2.82314e-01
       H  3.68547e-01 -2.38934e+00 -2.01154e+00
       H  3.29345e+00 -1.71823e+00 -1.83793e-01
       H  6.20475e+00 -3.01349e+00  1.19503e+00
       H  6.64312e+00 -1.13574e+00 -1.07081e+00
       H  1.13450e-01 -3.66782e-01  1.55562e-01
7
# CELL(abcABC):   25.29166    25.29166    25.29166    90.00000    90.00000    90.00000  Step:          57  Bead:       0 x_centroid{atomic_unit}  cell{atomic_unit}
       O  1.04928e+00 -1.83617e+00 -4.05986e-01
       O  5.49952e+00 -1.59231e+00  2.82301e-01
       H  3.68520e-01 -2.38933e+00 -2.01155e+00
       H  3.29345e+00 -1.71823e+00 -1.83810e-01
       H  6.20473e+00 -3.01348e+00  1.19505e+00
       H  6.64315e+00 -1.13574e+00 -1.07080e+00
       H  1.13470e-01 -3.66804e-01  1.55589e-01
7
# CELL(abcABC):   25.29166    25.29166    25.29166    90.00000    90.00000    90.00000  Step:          58  Bead:       0 x_centroid{atomic_unit}  cell{atomic_unit}
       O  1.04928e+00 -1.83616e+00 -4.05989e-01
       O  5.49952e+00 -1.59231e+00  2.82305e-01
       H  3.68524e-01 -2.38933e+00 -2.01154e+00
       H  3.29345e+00 -1.71823e+00 -1.83812e-01
       H  6.20473e+00 -3.01348e+00  1.19504e+00
       H  6.64315e+00 -1.13574e+00 -1.07080e+00
       H  1.13469e-01 -3.66800e-01  1.55588e-01
