7
# CELL(abcABC):   25.29166    25.29166    25.29166    90.00000    90.00000    90.00000  Step:           0  Bead:       0 f_centroid{atomic_unit}  cell{atomic_unit}
       O  1.81782e-03  2.94126e-03 -2.50671e-03
       O -9.85165e-04 -3.13301e-03 -2.76220e-03
       H  1.96107e-03  2.46574e-03  5.79977e-03
       H -1.56524e-04  3.14017e-05  1.02516e-03
       H -2.23501e-03  5.02979e-03 -3.90609e-03
       H -3.66372e-03 -2.09913e-03  5.06836e-03
       H  3.26160e-03 -5.23500e-03 -2.71833e-03
7
# CELL(abcABC):   25.29166    25.29166    25.29166    90.00000    90.00000    90.00000  Step:           1  Bead:       0 f_centroid{atomic_unit}  cell{atomic_unit}
       O  7.08337e-03 -4.90473e-04  1.45813e-03
       O -7.19396e-03  5.13627e-04 -8.23604e-04
       H -4.11322e-04  4.21622e-05 -7.00528e-04
       H -9.24288e-05  1.79000e-05  6.14943e-04
       H  3.29653e-04 -6.36363e-04  7.54696e-05
       H  6.11597e-04 -7.27582e-05 -5.40857e-04
       H -3.28093e-04  6.27564e-04 -8.21885e-05
7
# CELL(abcABC):   25.29166    25.29166    25.29166    90.00000    90.00000    90.00000  Step:           2  Bead:       0 f_centroid{atomic_unit}  cell{atomic_unit}
       O  3.23119e-03 -1.71849e-04  4.68202e-04
       O -3.22900e-03  1.62866e-04 -5.59594e-04
       H  3.53418e-04 -2.63847e-04 -2.67049e-04
       H -1.22483e-05  1.12550e-06  1.04231e-04
       H -3.84868e-04 -4.21491e-04  2.85489e-04
       H -2.43763e-04  2.51349e-04 -3.85502e-04
       H  2.82022e-04  4.40322e-04  3.54385e-04
7
# CELL(abcABC):   25.29166    25.29166    25.29166    90.00000    90.00000    90.00000  Step:           3  Bead:       0 f_centroid{atomic_unit}  cell{atomic_unit}
       O -6.20602e-05  3.72457e-04  2.06433e-04
       O  7.88702e-07 -3.52736e-04  2.09812e-04
       H  6.92599e-04 -5.29717e-04 -2.84125e-04
       H  5.47786e-05 -1.32104e-05 -3.24253e-04
       H -9.41824e-04 -4.14815e-06  2.09849e-04
       H -5.77491e-04  5.03145e-04 -4.98443e-04
       H  8.34396e-04  2.31012e-05  4.79466e-04
7
# CELL(abcABC):   25.29166    25.29166    25.29166    90.00000    90.00000    90.00000  Step:           4  Bead:       0 f_centroid{atomic_unit}  cell{atomic_unit}
       O -3.57826e-04 -5.05710e-04 -7.37251e-04
       O  5.54465e-04  4.24187e-04 -5.87941e-04
       H  8.44848e-04 -2.19600e-04  4.05736e-04
       H  3.81206e-05 -6.40057e-06 -2.20336e-04
       H -6.04332e-04 -4.86909e-04  4.59271e-04
       H -8.99759e-04  2.49078e-04  8.49525e-05
       H  4.25904e-04  5.43129e-04  5.96482e-04
7
# CELL(abcABC):   25.29166    25.29166    25.29166    90.00000    90.00000    90.00000  Step:           5  Bead:       0 f_centroid{atomic_unit}  cell{atomic_unit}
       O -6.69274e-04 -4.41896e-04 -4.01896e-04
       O  7.38531e-04  4.10527e-04 -1.83205e-04
       H  4.61843e-04 -2.15024e-05  2.90699e-04
       H  2.44256e-05 -5.15854e-06 -1.45405e-04
       H -3.76970e-04 -2.57447e-04  1.19093e-04
       H -5.03576e-04  4.51450e-05  1.09493e-04
       H  3.26220e-04  2.70718e-04  2.11332e-04
7
# CELL(abcABC):   25.29166    25.29166    25.29166    90.00000    90.00000    90.00000  Step:           6  Bead:       0 f_centroid{atomic_unit}  cell{atomic_unit}
       O -5.31344e-05 -3.89720e-04 -8.28635e-06
       O  2.23130e-04  2.71311e-04 -1.05587e-06
       H  2.83464e-05  7.51655e-05  3.66896e-05
       H -1.10248e-05  1.37703e-06  4.75339e-05
       H -1.47394e-04 -4.62336e-05 -1.37076e-04
       H -1.22846e-04 -9.29830e-05  1.06199e-04
       H  8.01037e-05  1.76810e-04 -4.27207e-05
7
# CELL(abcABC):   25.29166    25.29166    25.29166    90.00000    90.00000    90.00000  Step:           7  Bead:       0 f_centroid{atomic_unit}  cell{atomic_unit}
       O -1.96984e-04  1.53970e-04  1.79206e-04
       O -4.63574e-04  3.26067e-04  1.31173e-04
       H -2.32987e-05  1.04487e-04  6.18769e-05
       H -9.47722e-06  2.51958e-06  1.07956e-04
       H  1.21962e-04 -2.14540e-04 -3.68729e-05
       H  2.79584e-04 -3.88994e-05 -1.68998e-04
       H  2.92154e-04 -3.32159e-04 -2.71882e-04
7
# CELL(abcABC):   25.29166    25.29166    25.29166    90.00000    90.00000    90.00000  Step:           8  Bead:       0 f_centroid{atomic_unit}  cell{atomic_unit}
       O  2.44459e-04 -4.38618e-05  2.11217e-04
       O -2.74912e-04 -1.06449e-04  2.80507e-04
       H -1.52426e-04  5.11747e-05 -1.02131e-04
       H -2.21107e-05  1.16174e-05  1.31482e-04
       H -3.03203e-05  1.65396e-04 -2.48490e-04
       H  2.18688e-04 -3.36996e-05 -1.11224e-04
       H  1.60185e-05 -4.30063e-05 -1.61700e-04
7
# CELL(abcABC):   25.29166    25.29166    25.29166    90.00000    90.00000    90.00000  Step:           9  Bead:       0 f_centroid{atomic_unit}  cell{atomic_unit}
       O  2.06629e-04  5.18057e-05  2.27642e-04
       O -8.42775e-05 -5.72413e-06  1.86304e-06
       H -1.35357e-04 -2.06583e-05 -1.65758e-04
       H -2.07990e-05 -3.12212e-06  1.10217e-04
       H -2.65175e-06  5.54238e-05 -1.18814e-04
       H  2.23579e-05 -3.96639e-05  5.03547e-05
       H  1.08344e-05 -3.83338e-05 -1.04919e-04
7
# CELL(abcABC):   25.29166    25.29166    25.29166    90.00000    90.00000    90.00000  Step:          10  Bead:       0 f_centroid{atomic_unit}  cell{atomic_unit}
       O -5.88798e-05 -1.39769e-04 -2.87699e-04
       O -3.04468e-05 -1.56274e-04  1.45712e-04
       H  1.10444e-04  2.75165e-05  2.17611e-04
       H -8.19540e-06  1.91861e-05  4.66670e-05
       H -3.73873e-05  6.25192e-05 -5.02368e-05
       H  6.79364e-05  7.29742e-05 -1.14520e-04
       H -4.48495e-05  1.11936e-04  4.31072e-05
7
# CELL(abcABC):   25.29166    25.29166    25.29166    90.00000    90.00000    90.00000  Step:          11  Bead:       0 f_centroid{atomic_unit}  cell{atomic_unit}
       O -8.83489e-06  2.74412e-05  3.34239e-06
       O  1.34833e-05 -9.77138e-06 -1.35188e-05
       H  7.44080e-06 -2.98627e-05 -5.58060e-06
       H -7.31433e-06  3.42482e-07  4.40721e-05
       H -2.89049e-06 -1.90610e-05 -1.26533e-05
       H -1.69749e-05  2.47951e-05  2.88765e-06
       H  1.34577e-05  6.55263e-06 -1.63737e-05
7
# CELL(abcABC):   25.29166    25.29166    25.29166    90.00000    90.00000    90.00000  Step:          12  Bead:       0 f_centroid{atomic_unit}  cell{atomic_unit}
       O -2.03215e-07  1.53932e-05 -1.41398e-06
       O  2.79812e-06 -3.47740e-06 -1.29404e-05
       H  6.53841e-06 -2.43872e-05 -2.04636e-07
       H -7.19922e-06  1.21219e-06  4.45652e-05
       H  5.84777e-06 -2.16673e-05 -1.41227e-05
       H -1.22995e-05  1.98014e-05  4.32010e-06
       H  6.41620e-06  1.37632e-05 -1.79824e-05
7
# CELL(abcABC):   25.29166    25.29166    25.29166    90.00000    90.00000    90.00000  Step:          13  Bead:       0 f_centroid{atomic_unit}  cell{atomic_unit}
       O -1.76357e-06  6.86526e-06  2.63995e-05
       O -8.87468e-06 -3.36499e-05  5.94440e-05
       H -1.14113e-06 -7.08269e-06  6.05240e-06
       H -2.20837e-06  1.97815e-06  4.45084e-06
       H  1.35728e-05  7.06848e-06 -3.99851e-05
       H  1.31976e-05  1.56618e-05 -1.85040e-05
       H -1.46031e-05  1.02105e-05 -3.52514e-05
7
# CELL(abcABC):   25.29166    25.29166    25.29166    90.00000    90.00000    90.00000  Step:          14  Bead:       0 f_centroid{atomic_unit}  cell{atomic_unit}
       O  2.34976e-05 -6.09958e-05 -1.36097e-05
       O -4.43805e-06  3.90898e-05 -9.73586e-06
       H  9.05374e-06  4.85869e-06  3.03132e-05
       H  2.21831e-06 -1.49640e-06 -1.36808e-05
       H  4.62848e-05 -5.18256e-05 -2.64322e-06
       H -1.86603e-05 -4.98801e-07  2.43730e-05
       H -5.70154e-05  7.07772e-05 -1.40233e-05
7
# CELL(abcABC):   25.29166    25.29166    25.29166    90.00000    90.00000    90.00000  Step:          15  Bead:       0 f_centroid{atomic_unit}  cell{atomic_unit}
       O  3.78861e-06 -4.27093e-05 -3.22444e-06
       O  7.42943e-06  3.42325e-05 -3.47598e-06
       H  1.66636e-05 -2.75406e-06  2.68386e-05
       H  4.21778e-06 -2.57216e-06 -3.10337e-05
       H  4.56950e-05 -5.05494e-05  1.86162e-06
       H -2.61892e-05  2.15863e-06  2.22002e-05
       H -4.99185e-05  6.03507e-05 -1.18291e-05
7
# CELL(abcABC):   25.29166    25.29166    25.29166    90.00000    90.00000    90.00000  Step:          16  Bead:       0 f_centroid{atomic_unit}  cell{atomic_unit}
       O -2.61124e-05  4.47500e-06  5.06844e-05
       O  4.43478e-05 -1.80705e-05  3.85384e-05
       H  2.48903e-05 -1.89232e-05  1.33014e-06
       H  1.83420e-05 -4.77769e-06 -9.86375e-05
       H  1.76513e-05 -7.14238e-06 -1.17041e-05
       H -4.76106e-05  9.21005e-06  2.55810e-05
       H -3.28640e-05  3.76474e-05 -5.31486e-06
7
# CELL(abcABC):   25.29166    25.29166    25.29166    90.00000    90.00000    90.00000  Step:          17  Bead:       0 f_centroid{atomic_unit}  cell{atomic_unit}
       O -1.49656e-04  1.28983e-04  3.74499e-05
       O -8.38696e-05  5.41178e-05  2.97845e-05
       H  5.93374e-05 -8.66578e-06  6.55263e-05
       H  2.72124e-05 -7.51612e-06 -1.21358e-04
       H  5.85644e-05 -9.66807e-05  5.54522e-05
       H  1.87384e-05  3.26381e-05 -3.06088e-05
       H  7.25805e-05 -1.00748e-04 -4.08690e-05
7
# CELL(abcABC):   25.29166    25.29166    25.29166    90.00000    90.00000    90.00000  Step:          18  Bead:       0 f_centroid{atomic_unit}  cell{atomic_unit}
       O -4.48438e-05  4.38106e-05  1.82681e-05
       O  4.60005e-06 -4.98488e-05  5.10283e-05
       H  3.18707e-05 -2.21988e-05  3.71273e-05
       H  2.09440e-05 -3.98188e-06 -1.00739e-04
       H -2.43716e-05  1.06681e-05 -4.01172e-06
       H -1.32374e-05  3.42922e-05 -6.60805e-07
       H  2.64635e-05 -1.45789e-05  2.11742e-06
7
# CELL(abcABC):   25.29166    25.29166    25.29166    90.00000    90.00000    90.00000  Step:          19  Bead:       0 f_centroid{atomic_unit}  cell{atomic_unit}
       O  3.12170e-05  3.48592e-05  5.66558e-05
       O  6.33378e-06 -1.81146e-05 -9.67191e-06
       H -2.14740e-05 -2.98428e-05 -1.86347e-05
       H  9.12763e-06 -7.15943e-06 -5.26256e-05
       H -3.16234e-05  6.25846e-06 -6.61373e-06
       H -1.71781e-05  2.09880e-05  3.55016e-05
       H  2.12808e-05 -6.96332e-06 -3.63229e-06
7
# CELL(abcABC):   25.29166    25.29166    25.29166    90.00000    90.00000    90.00000  Step:          20  Bead:       0 f_centroid{atomic_unit}  cell{atomic_unit}
       O  1.64349e-05 -1.02517e-04 -1.35091e-04
       O -2.26677e-05 -4.62791e-05  3.79501e-05
       H  9.85096e-06  2.36454e-05  1.19711e-04
       H -3.33955e-07  6.39062e-06  6.39488e-06
       H -4.44331e-05  3.22956e-05 -3.40549e-05
       H  5.04770e-05  2.80181e-05 -9.43885e-06
       H -8.69278e-06  5.77529e-05  1.37817e-05
7
# CELL(abcABC):   25.29166    25.29166    25.29166    90.00000    90.00000    90.00000  Step:          21  Bead:       0 f_centroid{atomic_unit}  cell{atomic_unit}
       O  2.26621e-05 -2.31267e-05 -2.38444e-05
       O -1.67105e-05  1.88720e-06 -1.29504e-05
       H -2.39154e-05 -3.99183e-06  3.46063e-05
       H  2.43006e-07 -2.28226e-06 -1.48077e-06
       H -2.27146e-05 -6.11351e-06 -1.05985e-05
       H  2.32646e-05  1.75163e-05  2.00757e-05
       H  1.39451e-05  1.26249e-05 -4.25899e-06
7
# CELL(abcABC):   25.29166    25.29166    25.29166    90.00000    90.00000    90.00000  Step:          22  Bead:       0 f_centroid{atomic_unit}  cell{atomic_unit}
       O  1.16600e-05  4.03304e-06  5.32765e-06
       O -1.16643e-05  1.35202e-05 -1.94419e-05
       H -3.16831e-05 -1.15378e-05  1.03739e-05
       H  1.63993e-06 -2.70290e-06 -6.89937e-06
       H -1.73713e-05 -1.41824e-05 -4.67253e-06
       H  2.23650e-05  1.56376e-05  2.45365e-05
       H  2.39183e-05 -3.85114e-06 -1.06652e-05
7
# CELL(abcABC):   25.29166    25.29166    25.29166    90.00000    90.00000    90.00000  Step:          23  Bead:       0 f_centroid{atomic_unit}  cell{atomic_unit}
       O -2.37918e-05  3.99666e-05  5.71532e-05
       O  1.30001e-05  3.26267e-05 -2.01808e-05
       H -4.31797e-05 -2.84061e-05 -3.52671e-05
       H  4.57590e-06 -2.03784e-06 -1.68541e-05
       H -6.65068e-07 -2.85581e-05  3.14628e-06
       H  1.74524e-05  9.42038e-06  2.92673e-05
       H  3.26978e-05 -2.16929e-05 -1.64633e-05
7
# CELL(abcABC):   25.29166    25.29166    25.29166    90.00000    90.00000    90.00000  Step:          24  Bead:       0 f_centroid{atomic_unit}  cell{atomic_unit}
       O -5.27820e-05  5.37767e-05  7.08951e-05
       O  2.88495e-05  3.29010e-05 -6.12346e-06
       H -5.21482e-05 -3.78961e-05 -5.39913e-05
       H  6.28546e-06 -1.45661e-06 -1.81345e-05
       H  1.55893e-06 -2.61423e-05 -4.91696e-07
       H  2.72777e-05  8.81641e-06  2.21192e-05
       H  4.13152e-05 -3.12781e-05 -1.64079e-05
7
# CELL(abcABC):   25.29166    25.29166    25.29166    90.00000    90.00000    90.00000  Step:          25  Bead:       0 f_centroid{atomic_unit}  cell{atomic_unit}
       O -4.64397e-05 -2.42906e-05  7.84070e-05
       O  7.40826e-05  1.70661e-04 -1.04873e-04
       H -6.80558e-05 -5.59098e-05 -1.07788e-04
       H  1.31209e-05  4.80043e-06 -5.34072e-05
       H  8.35229e-05 -1.32538e-04  7.02030e-05
       H -2.24261e-05 -2.99806e-05  8.60709e-05
       H -3.35561e-05  6.70852e-05  3.25343e-05
7
# CELL(abcABC):   25.29166    25.29166    25.29166    90.00000    90.00000    90.00000  Step:          26  Bead:       0 f_centroid{atomic_unit}  cell{atomic_unit}
       O -1.26774e-04  9.73031e-05  1.18354e-04
       O  4.93003e-05 -8.18616e-05  1.76354e-04
       H -6.21355e-05 -4.63004e-05 -9.43430e-05
       H  1.14980e-05  1.31337e-05 -7.08908e-05
       H -9.62075e-07  6.80970e-05 -5.71987e-05
       H  9.20409e-05  1.15961e-05 -5.79931e-05
       H  3.87530e-05 -6.21753e-05 -1.68697e-05
7
# CELL(abcABC):   25.29166    25.29166    25.29166    90.00000    90.00000    90.00000  Step:          27  Bead:       0 f_centroid{atomic_unit}  cell{atomic_unit}
       O -7.23674e-05  3.26878e-05  4.16279e-05
       O  3.19702e-05 -2.73630e-05  8.57625e-05
       H -3.94451e-05 -2.12339e-05 -2.77836e-05
       H  6.50289e-06  9.66196e-06 -5.83029e-05
       H  1.15065e-05  2.43702e-05 -2.54261e-05
       H  5.04770e-05  6.87805e-07 -1.11697e-05
       H  9.71170e-06 -1.88052e-05 -3.03686e-06
7
# CELL(abcABC):   25.29166    25.29166    25.29166    90.00000    90.00000    90.00000  Step:          28  Bead:       0 f_centroid{atomic_unit}  cell{atomic_unit}
       O -1.17808e-06 -9.86233e-06 -1.78389e-05
       O  5.66303e-06  3.97051e-06  1.18845e-05
       H -2.12523e-05  3.14060e-06  2.88807e-05
       H  9.94760e-09  5.03491e-06 -4.51450e-05
       H  1.84329e-05  9.52127e-08 -5.99414e-06
       H  1.32189e-05 -8.43841e-06  2.37677e-05
       H -1.37916e-05  4.82316e-06  1.30314e-06
7
# CELL(abcABC):   25.29166    25.29166    25.29166    90.00000    90.00000    90.00000  Step:          29  Bead:       0 f_centroid{atomic_unit}  cell{atomic_unit}
       O  2.55184e-05 -9.84244e-06 -3.47612e-05
       O -1.18561e-05  8.76526e-06 -1.29134e-05
       H -1.51928e-05  1.25326e-05  4.73506e-05
       H -4.84448e-06  2.75406e-06 -3.44741e-05
       H  1.98852e-05 -4.80185e-06  3.18039e-06
       H  2.75691e-06 -9.41185e-06  3.28527e-05
       H -1.78048e-05 -5.38591e-07 -1.46230e-06
7
# CELL(abcABC):   25.29166    25.29166    25.29166    90.00000    90.00000    90.00000  Step:          30  Bead:       0 f_centroid{atomic_unit}  cell{atomic_unit}
       O  8.90282e-05 -3.94266e-05 -2.38856e-05
       O  1.12507e-05 -3.09669e-05 -1.74708e-05
       H -2.46317e-05 -6.96900e-06  9.57812e-07
       H -6.31530e-06 -2.46700e-06 -8.96847e-06
       H -1.26576e-05  2.13248e-05 -7.50333e-07
       H -1.05416e-05  4.70095e-06  2.22713e-05
       H -4.67836e-05  5.13353e-05  2.71427e-05
7
# CELL(abcABC):   25.29166    25.29166    25.29166    90.00000    90.00000    90.00000  Step:          31  Bead:       0 f_centroid{atomic_unit}  cell{atomic_unit}
       O  1.78872e-05  2.08232e-05 -2.93625e-05
       O -4.60147e-06  6.35367e-06 -4.62038e-05
       H -4.87717e-06 -6.16467e-06  1.82922e-05
       H -4.13394e-06 -3.62945e-06  3.97904e-08
       H  7.36122e-07 -1.47864e-05  2.50523e-05
       H -6.95621e-06  6.68052e-06  1.92230e-05
       H  4.26326e-08 -1.03157e-05  1.19471e-05
7
# CELL(abcABC):   25.29166    25.29166    25.29166    90.00000    90.00000    90.00000  Step:          32  Bead:       0 f_centroid{atomic_unit}  cell{atomic_unit}
       O  1.98668e-06  1.81359e-05 -2.28582e-05
       O -3.56835e-06 -2.39453e-06 -2.30230e-05
       H -6.16183e-06 -1.29106e-05  5.30918e-06
       H -2.25668e-06 -1.65983e-06  6.49436e-07
       H -1.55040e-06 -1.00982e-05  2.23082e-05
       H  9.96465e-06  1.28992e-05  9.18021e-07
       H  1.74083e-06 -3.58256e-06  1.61776e-05
7
# CELL(abcABC):   25.29166    25.29166    25.29166    90.00000    90.00000    90.00000  Step:          33  Bead:       0 f_centroid{atomic_unit}  cell{atomic_unit}
       O -2.66851e-05  3.01881e-05  1.38485e-05
       O  2.89617e-05 -1.96806e-05 -4.50910e-06
       H -1.36708e-05 -2.32674e-05 -2.90299e-05
       H  4.65548e-06 -1.22071e-06  1.71951e-07
       H -1.46869e-05  1.13516e-05  5.02069e-06
       H  8.54499e-06  1.06866e-05  2.03499e-06
       H  1.26278e-05 -8.42846e-06  1.26860e-05
7
# CELL(abcABC):   25.29166    25.29166    25.29166    90.00000    90.00000    90.00000  Step:          34  Bead:       0 f_centroid{atomic_unit}  cell{atomic_unit}
       O -2.55980e-05 -1.57058e-05 -1.67049e-05
       O -1.51189e-05 -2.26621e-05  3.35433e-05
       H -1.12692e-06 -9.40901e-06 -4.56879e-06
       H  9.06368e-06  2.53095e-06  1.75504e-06
       H -7.17364e-06  6.43325e-06  2.62617e-06
       H  4.32181e-05  1.75064e-05 -3.61908e-05
       H -4.36842e-06  1.85025e-05  1.98952e-05
7
# CELL(abcABC):   25.29166    25.29166    25.29166    90.00000    90.00000    90.00000  Step:          35  Bead:       0 f_centroid{atomic_unit}  cell{atomic_unit}
       O -1.62999e-05 -1.10688e-05  4.06004e-06
       O -2.03926e-06 -1.56177e-06  8.85905e-06
       H -8.33182e-06 -7.69376e-06 -1.52738e-05
       H  9.57243e-06  1.34719e-06 -2.05773e-06
       H -7.36122e-07  5.44276e-07  4.69811e-06
       H  2.45336e-05  7.07558e-06 -9.23706e-06
       H -4.87574e-06  1.29518e-05  1.07676e-05
7
# CELL(abcABC):   25.29166    25.29166    25.29166    90.00000    90.00000    90.00000  Step:          36  Bead:       0 f_centroid{atomic_unit}  cell{atomic_unit}
       O -9.00116e-06 -3.96483e-07  1.46741e-05
       O  1.27187e-05 -4.73790e-06 -9.43601e-07
       H -9.10632e-06  5.47402e-06 -5.32765e-06
       H  7.53033e-06 -5.65592e-07 -5.73408e-06
       H -4.10267e-06  1.26832e-05 -7.91545e-06
       H  3.36087e-06 -5.31912e-06  1.30839e-05
       H  1.55183e-06 -4.85159e-06 -7.37401e-06
7
# CELL(abcABC):   25.29166    25.29166    25.29166    90.00000    90.00000    90.00000  Step:          37  Bead:       0 f_centroid{atomic_unit}  cell{atomic_unit}
       O  1.79909e-06 -4.52047e-06  1.30385e-05
       O  2.94733e-06  1.20579e-05 -1.54571e-05
       H -1.01835e-05  3.74882e-06 -4.57305e-06
       H  5.15143e-06 -2.53237e-06 -4.02736e-06
       H  1.00187e-06 -4.20783e-06  3.89093e-06
       H -1.60583e-06 -4.95817e-06  1.45590e-05
       H -1.24913e-06 -2.18137e-06 -3.78009e-06
7
# CELL(abcABC):   25.29166    25.29166    25.29166    90.00000    90.00000    90.00000  Step:          38  Bead:       0 f_centroid{atomic_unit}  cell{atomic_unit}
       O  2.76970e-06 -7.53602e-06  4.74358e-06
       O -2.64038e-06  1.19471e-05 -1.26946e-05
       H -4.10978e-06  6.36078e-06  2.70006e-07
       H  3.75024e-06 -3.20597e-06 -1.18803e-06
       H  1.44951e-06 -7.36122e-06  7.06422e-06
       H  2.45421e-06 -1.87157e-06  4.47500e-06
       H -1.65272e-06  4.12115e-08 -1.90141e-06
7
# CELL(abcABC):   25.29166    25.29166    25.29166    90.00000    90.00000    90.00000  Step:          39  Bead:       0 f_centroid{atomic_unit}  cell{atomic_unit}
       O  6.64926e-06 -1.00698e-05 -4.28031e-06
       O -1.38414e-06 -9.00400e-06  8.68710e-06
       H -2.95586e-06  2.79385e-06  2.60627e-06
       H  7.87281e-07  6.99174e-07 -1.96536e-06
       H -8.75389e-06  7.76197e-06 -1.90710e-06
       H  5.97993e-06  2.62759e-06 -7.56017e-06
       H -2.63043e-06  5.46976e-06  4.48495e-06
7
# CELL(abcABC):   25.29166    25.29166    25.29166    90.00000    90.00000    90.00000  Step:          40  Bead:       0 f_centroid{atomic_unit}  cell{atomic_unit}
       O -5.45270e-06  1.37987e-06 -5.07896e-06
       O -3.71188e-06 -9.05231e-06  1.62700e-05
       H -3.68061e-07 -1.60014e-06  3.37366e-06
       H -3.04112e-07  1.56888e-06 -4.90132e-06
       H -6.44889e-06  5.49676e-06 -1.43672e-06
       H  1.03327e-05  4.59437e-06 -1.23237e-05
       H  7.19496e-06 -3.96909e-06  4.16946e-06
7
# CELL(abcABC):   25.29166    25.29166    25.29166    90.00000    90.00000    90.00000  Step:          41  Bead:       0 f_centroid{atomic_unit}  cell{atomic_unit}
       O  1.07363e-05 -2.04793e-05 -1.31806e-05
       O  1.35429e-06 -4.65548e-06  1.13644e-05
       H  1.74367e-06 -1.70530e-07  4.33431e-06
       H -1.32871e-06  4.61853e-06 -6.63221e-06
       H -4.34994e-06  6.72031e-06 -5.26796e-06
       H  3.97904e-07 -2.98570e-06 -1.66125e-06
       H -5.86340e-06  1.56120e-05  1.02006e-05
7
# CELL(abcABC):   25.29166    25.29166    25.29166    90.00000    90.00000    90.00000  Step:          42  Bead:       0 f_centroid{atomic_unit}  cell{atomic_unit}
       O  9.27400e-06 -1.28580e-05 -4.61995e-06
       O  2.25953e-07  2.76970e-06  6.54268e-06
       H -4.33431e-07 -2.70575e-06 -2.60059e-07
       H -2.05205e-06  4.54605e-06 -7.80034e-06
       H -6.53699e-07  1.93410e-06 -4.61000e-06
       H -3.78151e-06 -4.89280e-06  1.92557e-06
       H -2.08757e-06  1.06823e-05  8.51230e-06
7
# CELL(abcABC):   25.29166    25.29166    25.29166    90.00000    90.00000    90.00000  Step:          43  Bead:       0 f_centroid{atomic_unit}  cell{atomic_unit}
       O -5.85345e-06  3.96767e-06  3.63656e-06
       O  3.69056e-06  9.47580e-06 -5.55644e-07
       H -1.66693e-06 -1.88720e-06 -1.56035e-06
       H -6.56541e-07  3.19602e-06 -5.01785e-06
       H  4.10694e-07 -2.23253e-06 -7.41807e-07
       H -4.86864e-06 -5.78666e-06  5.15996e-06
       H  8.79083e-06 -6.61515e-06  1.02318e-07
7
# CELL(abcABC):   25.29166    25.29166    25.29166    90.00000    90.00000    90.00000  Step:          44  Bead:       0 f_centroid{atomic_unit}  cell{atomic_unit}
       O -3.90941e-06  5.30775e-06  2.53380e-06
       O  5.72697e-07  8.02061e-06 -5.44276e-07
       H -1.77351e-06 -1.55183e-06 -9.56391e-07
       H -3.29692e-07  8.12861e-07 -4.27320e-06
       H -1.84741e-08 -2.34479e-06 -1.65983e-06
       H -2.28511e-06 -4.44942e-06  4.56311e-06
       H  8.92868e-06 -6.21156e-06  3.73745e-07
7
# CELL(abcABC):   25.29166    25.29166    25.29166    90.00000    90.00000    90.00000  Step:          45  Bead:       0 f_centroid{atomic_unit}  cell{atomic_unit}
       O  5.29639e-06  4.76064e-06  1.22057e-05
       O -7.16085e-06 -6.38067e-07  1.03171e-05
       H -7.33991e-06 -2.77254e-06 -7.86571e-06
       H -2.26521e-06 -5.40012e-08 -9.39337e-07
       H -1.95683e-06 -2.07336e-06  1.88720e-06
       H  8.92584e-06  4.47073e-06 -9.49854e-06
       H  4.47642e-06 -4.30447e-06 -3.11502e-06
7
# CELL(abcABC):   25.29166    25.29166    25.29166    90.00000    90.00000    90.00000  Step:          46  Bead:       0 f_centroid{atomic_unit}  cell{atomic_unit}
       O -1.61293e-06 -2.82654e-06 -6.80700e-06
       O  5.94582e-06  2.84075e-06 -2.55511e-06
       H -2.84217e-08  3.08944e-06  7.13953e-06
       H -1.46230e-06 -3.55271e-07  5.31486e-07
       H -2.57643e-06 -3.54987e-06  3.64935e-06
       H  1.33866e-06  2.05631e-06  1.20082e-06
       H  7.54596e-07 -1.42393e-06 -1.27613e-06
7
# CELL(abcABC):   25.29166    25.29166    25.29166    90.00000    90.00000    90.00000  Step:          47  Bead:       0 f_centroid{atomic_unit}  cell{atomic_unit}
       O  5.04485e-07 -2.23110e-06 -1.58309e-06
       O  4.45652e-06  1.79767e-06 -7.77334e-07
       H -2.08900e-06  2.48690e-06  1.85310e-06
       H -1.11413e-06  6.49436e-07 -3.97904e-07
       H -3.14770e-06 -5.74119e-07  2.05063e-06
       H  1.83462e-06  9.60654e-07 -2.24674e-06
       H  1.98668e-06 -1.29035e-06  3.53850e-07
7
# CELL(abcABC):   25.29166    25.29166    25.29166    90.00000    90.00000    90.00000  Step:          48  Bead:       0 f_centroid{atomic_unit}  cell{atomic_unit}
       O  1.24629e-06 -8.15703e-07  5.15570e-06
       O  4.98090e-06 -3.86109e-06  3.87956e-06
       H -3.72324e-06 -8.66862e-08 -5.27081e-06
       H  6.39488e-07  1.54898e-06 -3.04397e-06
       H -4.27889e-06  5.38449e-06 -2.79812e-06
       H -1.49782e-06 -6.39488e-08  7.10543e-09
       H  2.03926e-06  4.63274e-07 -1.00897e-07
7
# CELL(abcABC):   25.29166    25.29166    25.29166    90.00000    90.00000    90.00000  Step:          49  Bead:       0 f_centroid{atomic_unit}  cell{atomic_unit}
       O  2.08331e-06 -1.79341e-06  5.96145e-06
       O -6.97327e-06  5.57492e-06  9.99023e-07
       H -7.46070e-07  6.32383e-07 -3.59535e-06
       H  1.54614e-06 -5.01643e-07 -2.43148e-06
       H  1.57172e-06 -5.19691e-06  2.24532e-06
       H  4.16946e-06  6.96332e-08 -2.97007e-06
       H -8.81073e-08  6.01119e-07 -4.51905e-07
7
# CELL(abcABC):   25.29166    25.29166    25.29166    90.00000    90.00000    90.00000  Step:          50  Bead:       0 f_centroid{atomic_unit}  cell{atomic_unit}
       O -2.07621e-06 -3.59677e-06  3.85683e-06
       O -2.35048e-06  1.74794e-06  6.50857e-07
       H -5.48539e-07  1.63425e-06 -5.54223e-07
       H  3.03828e-06  1.71099e-06 -1.35856e-06
       H  4.40536e-07 -5.58487e-07  9.35074e-07
       H  5.85487e-07 -7.10543e-07  3.24007e-07
       H  1.74225e-06 -1.87583e-07 -5.11591e-07
7
# CELL(abcABC):   25.29166    25.29166    25.29166    90.00000    90.00000    90.00000  Step:          51  Bead:       0 f_centroid{atomic_unit}  cell{atomic_unit}
       O -4.30447e-06 -3.54561e-06 -1.89857e-06
       O  4.00604e-06 -3.92646e-06  4.05009e-07
       H  1.12550e-06  3.53850e-06  3.94351e-06
       H  1.08002e-07  4.27747e-07  1.69962e-06
       H -3.06102e-06  3.90514e-06 -2.95159e-06
       H -3.62377e-07  3.62377e-07  3.53850e-07
       H  1.40403e-06 -1.61293e-06 -1.46230e-06
7
# CELL(abcABC):   25.29166    25.29166    25.29166    90.00000    90.00000    90.00000  Step:          52  Bead:       0 f_centroid{atomic_unit}  cell{atomic_unit}
       O -1.89999e-06 -1.15250e-06 -4.76064e-07
       O  5.49960e-06 -1.28750e-06 -3.40066e-06
       H  7.34701e-07  1.60014e-06  9.73444e-07
       H  6.72173e-07  2.79954e-07  1.52198e-06
       H -3.28697e-06  2.01084e-06 -1.05445e-06
       H -1.15392e-06  1.56319e-08  2.17995e-06
       H  1.23208e-06 -1.72236e-06 -1.10703e-06
7
# CELL(abcABC):   25.29166    25.29166    25.29166    90.00000    90.00000    90.00000  Step:          53  Bead:       0 f_centroid{atomic_unit}  cell{atomic_unit}
       O  4.51905e-07 -2.02505e-06  3.75309e-06
       O  1.72946e-06  1.80194e-06 -2.66738e-06
       H -1.69678e-06 -5.30065e-07 -2.53380e-06
       H  4.67537e-07  7.50333e-07 -9.32232e-07
       H -1.03029e-06 -1.59019e-06  9.26548e-07
       H -1.65699e-06 -5.79803e-07  1.10418e-06
       H -5.49960e-07  1.69678e-06  4.66116e-07
7
# CELL(abcABC):   25.29166    25.29166    25.29166    90.00000    90.00000    90.00000  Step:          54  Bead:       0 f_centroid{atomic_unit}  cell{atomic_unit}
       O  1.05871e-06 -1.06866e-06  2.13873e-06
       O -1.36282e-06  7.51754e-07 -1.84741e-07
       H -1.40972e-06  6.67910e-07 -1.36851e-06
       H  4.20641e-07  1.16813e-06  6.50857e-07
       H -2.03215e-07 -5.48539e-07 -1.35003e-06
       H  1.63709e-06  1.90425e-07 -1.76215e-06
       H  9.59233e-07 -6.55120e-07 -1.64846e-07
7
# CELL(abcABC):   25.29166    25.29166    25.29166    90.00000    90.00000    90.00000  Step:          55  Bead:       0 f_centroid{atomic_unit}  cell{atomic_unit}
       O -9.80549e-07 -3.60956e-07 -1.56319e-06
       O -3.11360e-06 -5.88329e-07  1.35145e-06
       H -2.81375e-07  1.49498e-06  1.30740e-06
       H  4.77485e-07  4.97380e-07  9.15179e-07
       H -1.42677e-06  8.27072e-07  9.96181e-07
       H  3.18323e-06  1.94404e-06 -2.98002e-06
       H  5.96856e-08 -1.19371e-06 -9.29390e-07
7
# CELL(abcABC):   25.29166    25.29166    25.29166    90.00000    90.00000    90.00000  Step:          56  Bead:       0 f_centroid{atomic_unit}  cell{atomic_unit}
       O -3.11218e-07  7.80176e-07 -1.09139e-06
       O -4.12115e-06 -3.22586e-07  9.19442e-07
       H  4.13536e-07  4.26326e-09  6.43752e-07
       H  4.13536e-07 -2.85638e-07  1.89431e-06
       H -5.95435e-07 -4.17799e-07  7.07701e-07
       H  3.21023e-06  2.22116e-06 -1.19229e-06
       H  2.12026e-06 -1.79483e-06  1.56319e-07
7
# CELL(abcABC):   25.29166    25.29166    25.29166    90.00000    90.00000    90.00000  Step:          57  Bead:       0 f_centroid{atomic_unit}  cell{atomic_unit}
       O  5.91172e-07 -9.03810e-07 -2.00941e-06
       O  6.53699e-08 -1.49214e-06  9.20863e-07
       H  1.68399e-06  1.62004e-07  6.97753e-07
       H  6.62226e-07  7.10543e-09 -1.27613e-06
       H -7.56017e-07  1.90710e-06 -1.14397e-06
       H -1.90568e-06 -1.68399e-06  2.10747e-06
       H -1.13829e-06  8.85336e-07  6.49436e-07
7
# CELL(abcABC):   25.29166    25.29166    25.29166    90.00000    90.00000    90.00000  Step:          58  Bead:       0 f_centroid{atomic_unit}  cell{atomic_unit}
       O -2.11742e-07  1.79199e-06  6.45173e-07
       O -1.71525e-06  1.76925e-06 -2.05631e-06
       H -2.84217e-09 -2.09042e-06 -1.94689e-07
       H  3.93641e-07 -3.86535e-07  2.78533e-07
       H  3.42482e-07 -1.49214e-07 -8.39862e-07
       H  4.98801e-07 -7.07701e-07  6.79279e-07
       H  4.91696e-07 -1.13687e-08  1.02318e-07
