#Bead    Energy (eV)
0     0.10536570559224986
1     0.10796937940537532
2     0.11345960616975363
3     0.1212624516109319
4     0.13012394556425977
5     0.13827782900531155
6     0.14409064567424526
7     0.1461902163768674
8     0.14401559329086475
9     0.1387049765671873
10     0.1317616524444068
11     0.12404435388233291
12     0.11649826568505901
13     0.11020034438699838
14     0.10586150314813286
15     0.10381457460636012
