#Bead    Energy (eV)
0     0.14507181525154492
1     0.14517396274559144
2     0.14536020010596862
3     0.14559719728719883
4     0.14584153592877977
5     0.14604655231091665
6     0.14616982161609277
7     0.14618011947798115
8     0.1460637857497645
9     0.14583053706701643
10     0.14550850210083763
11     0.14513816768301444
12     0.1447661137386723
13     0.14443854893646796
14     0.14419551128446056
15     0.1440662831199471
