#Bead    Energy (eV)
0     0.14299471108667383
1     0.14326718277069492
2     0.14376687644554512
3     0.14440991683561794
4     0.14508631706760527
5     0.1456768082582106
6     0.14607164376689302
7     0.14618846607926103
8     0.14598894195393086
9     0.14549933015005198
10     0.14479383634993914
11     0.14397328994593528
12     0.14314838669730912
13     0.14242442763806792
14     0.1418893690287784
15     0.14160569574970738
