#Bead    Energy (eV)
0     0.14012532125120616
1     0.140626954863258
2     0.14154940993031565
3     0.14274279732691947
4     0.14400919179695326
5     0.14513203307607322
6     0.14591020433901125
7     0.14619092247254367
8     0.14590119314633332
9     0.1450942228590483
10     0.14391274217389113
11     0.14254020802020273
12     0.14116887538107245
13     0.1399739292874756
14     0.13909626148316284
15     0.13863276345665468
