#Bead    Energy (eV)
0     0.14603646512958915
1     0.14605439378948806
2     0.1460863515906229
3     0.14612517657160506
4     0.14616162130895852
5     0.14618588913954697
6     0.14618929153422708
7     0.1461657758250755
8     0.1461133576078558
9     0.14603471600903162
10     0.14593657907753424
11     0.14582877642876602
12     0.14572289203991054
13     0.14563071208607467
14     0.1455626868287929
15     0.145526600516353
