#Bead    Energy (eV)
0     0.14618891219376745
1     0.14618971008791523
2     0.14619069285692718
3     0.14619074675827123
4     0.14618846409317182
5     0.14618241151631267
6     0.14617141921891547
7     0.14615486646029333
8     0.14613286429786435
9     0.1461063113759214
10     0.1460768412658764
11     0.14604665821587223
12     0.14601828558184748
13     0.14599426324267784
14     0.1459768362587751
15     0.14596767693653578
