#Bead    Energy (eV)
0     0.14564842751143234
1     0.14570141332180533
2     0.14579745710500014
3     0.14591827012574327
4     0.14604010724900124
5     0.1461375772861378
6     0.14618778013720085
7     0.14617412667941082
8     0.14608985984227116
9     0.1459405609456761
10     0.1457418873591575
11     0.14551676472400318
12     0.1452919980213605
13     0.14509457961024028
14     0.14494820383507648
15     0.14487037696387775
