#Bead    Energy (eV)
0     0.14619035118482168
1     0.14619070699962955
2     0.14619091286669983
3     0.1461900516834462
4     0.14618696880233711
5     0.14618049740360584
6     0.14616970302480536
7     0.14615412201583527
8     0.1461339066076566
9     0.14610987493352684
10     0.14608346566825425
11     0.14605659799922505
12     0.1460314573249148
13     0.1460102372726762
14     0.14599487391951996
15     0.14598680823928564
