#Bead    Energy (eV)
0     0.14593106259329333
1     0.14595887867467452
2     0.14600887285703046
3     0.14607067729174922
4     0.1461308736865991
5     0.1461751888260367
6     0.14619086815873902
7     0.1461688610702842
8     0.1461058623930108
9     0.14600538807848898
10     0.14587673126746956
11     0.14573353408884454
12     0.1455918594797743
13     0.14546801044261723
14     0.1453764026933027
15     0.14532774930608364
