#Bead    Energy (eV)
0     0.1460735971871513
1     0.14608789614671538
2     0.14611324715300134
3     0.1461436909117923
4     0.14617154286582434
5     0.1461886807404172
6     0.14618793236211292
7     0.1461643573934218
8     0.14611644634392668
9     0.14604655825255256
10     0.14596045242238306
11     0.14586650885993263
12     0.1457745978511565
13     0.14569476746313498
14     0.1456359344767502
15     0.1456047461994885
