#Bead    Energy (eV)
0     0.14618237910356155
1     0.14618442987650948
2     0.1461876364679404
3     0.14619036770110008
4     0.14619054863757955
5     0.1461860405496274
6     0.14617504847183463
7     0.14615652020452657
8     0.14613044024849883
9     0.14609789890702132
10     0.14606101724055306
11     0.1460227195597517
12     0.14598638550157045
13     0.14595543295165522
14     0.14593289044274196
15     0.14592101667920937
