#Bead    Energy (eV)
0     0.14186095700325374
1     0.1422245723072115
2     0.1428923768233226
3     0.14375398748087362
4     0.14466418806756076
5     0.14546495780119817
6     0.1460103114107636
7     0.146190081464537
8     0.14595236309497425
9     0.14533364698494589
10     0.14443465567724204
11     0.1433889186155001
12     0.14234009106122228
13     0.1414223057874322
14     0.1407457473380864
15     0.1403876736568159
