#Bead    Energy (eV)
0     0.1218827567373583
1     0.12376633885695405
2     0.1272969907469428
3     0.13190915937202585
4     0.13685949957851087
5     0.14135193350855776
6     0.14464774056006036
7     0.14614388040422033
8     0.14551668791135072
9     0.14303144824806435
10     0.13935284143118107
11     0.13518027539170005
12     0.1310216710169069
13     0.12736166466603177
14     0.1246476483143118
15     0.12321605103328478
