#Bead    Energy (eV)
0     0.14614418278334312
1     0.1461511035560609
2     0.1461630693292825
3     0.14617664564525049
4     0.14618742430857115
5     0.14619078503245037
6     0.14618271433122174
7     0.14616057237945188
8     0.14612378303936388
9     0.14607400335879525
10     0.14601492117017711
11     0.14595180562976995
12     0.14589083135291916
13     0.14583827944530695
14     0.14579972847939024
15     0.14577934216293614
