#Bead    Energy (eV)
0     0.14576493287455977
1     0.14580769251267692
2     0.14588501062246853
3     0.14598178813813772
4     0.14607844165879905
5     0.14615406542689888
6     0.14618985880914565
7     0.14617228628322373
8     0.14609600373935153
9     0.1459657554081768
10     0.1457946237623688
11     0.14560180806316425
12     0.1454098282194614
13     0.1452414357007765
14     0.14511666075804922
15     0.1450503367677918
