#Bead    Energy (eV)
0     0.14377875551042651
1     0.14398761054192102
2     0.14437010837394207
3     0.14486107396291503
4     0.14537522169216768
5     0.1458203195743522
6     0.14611179126660812
7     0.1461864899688813
8     0.14601540777031038
9     0.14561821691015167
10     0.14505136708502023
11     0.144393078764371
12     0.14373059929391033
13     0.14314812074876274
14     0.14271686361712765
15     0.14248794108248958
