#Bead    Energy (eV)
0     0.14612612279116377
1     0.1461350267093396
2     0.1461505819585336
3     0.14616866054111322
4     0.14618395507536927
5     0.14619088557470014
6     0.14618457518693487
7     0.14616175823119754
8     0.1461216137483958
9     0.14606599780158838
10     0.14599917528797074
11     0.1459272826323046
12     0.14585752694622905
13     0.1457972442301277
14     0.14575294990845486
15     0.14572950589787578
