#Bead    Energy (eV)
0     0.14531323720381514
1     0.14539501057208679
2     0.1455438423654375
3     0.14573259137473488
4     0.1459259428647639
5     0.14608600813779535
6     0.14617843093734958
7     0.14617805039150303
8     0.1460740846473999
9     0.1458745071982089
10     0.14560224510858077
11     0.14529055039961306
12     0.14497793405448836
13     0.14470283037066778
14     0.14449871442730322
15     0.14439016793831194
