#Bead    Energy (eV)
0     0.14598973741002735
1     0.14601210828441796
2     0.14605216363214474
3     0.14610129075562694
4     0.14614835559959635
5     0.14618153787961302
6     0.14619031288778522
7     0.1461672764641134
8     0.1461098547743081
9     0.1460211074781575
10     0.1459089249914491
11     0.1457848694949361
12     0.14566256546387363
13     0.14555586142969185
14     0.1454770217211532
15     0.14543517240934076
