#Bead    Energy (eV)
0     0.1443415212514584
1     0.14450429320192903
2     0.14480197581564375
3     0.1451830561143355
4     0.14558024262510605
5     0.1459209319827529
6     0.14613875121468506
7     0.14618438290008173
8     0.14603549672164207
9     0.1457072917786887
10     0.14524375676267556
11     0.14470680723254467
12     0.14416638086222233
13     0.14369073097424398
14     0.1433381654975646
15     0.14315085822533646
