#Bead    Energy (eV)
0     0.14550101339861735
1     0.14556675210023756
2     0.1456861697310506
3     0.14583703672906578
4     0.145990460893933
5     0.14611549593391732
6     0.14618415515819438
7     0.14617604972762438
8     0.1460826468388222
9     0.1459105789285923
10     0.14567871570277854
11     0.14541457937245958
12     0.14515021484922705
13     0.14491776126564382
14     0.14474533099623108
15     0.14465363689020355
