#Bead    Energy (eV)
0     0.14585742968318877
1     0.145891937157076
2     0.1459541591543073
3     0.1460315965354697
4     0.1461080550645742
5     0.14616627709284385
6     0.14619079018478412
7     0.1461705308587385
8     0.14610128567098943
9     0.14598712295446123
10     0.14583903975605428
11     0.14567318811527613
12     0.1455085575411223
13     0.14536438269747914
14     0.1452576384569077
15     0.1452009197308146
