#Bead    Energy (eV)
0     0.13730005931925504
1     0.1380263193144624
2     0.1393625420912121
3     0.1410935303665471
4     0.14293716379640234
5     0.14458341448204173
6     0.14574172573696764
7     0.1461897719489444
8     0.14582003550694525
9     0.14471614537009053
10     0.14309284388477816
11     0.1412151846162187
12     0.13935144743980363
13     0.1377361662400586
14     0.1365475347377668
15     0.13591719426786755
