#Bead    Energy (eV)
0     0.14475752696215818
1     0.14488591362315625
2     0.14512036367388953
3     0.145419641169109
4     0.1457299591047261
5     0.14599340301571234
6     0.1461571777012834
7     0.14618223982735462
8     0.14605119452067217
9     0.14577607558040856
10     0.14539180283491723
11     0.14494814472736822
12     0.14450189142460493
13     0.1441089683947489
14     0.14381752705849982
15     0.14366260976626766
