#Bead    Energy (eV)
0     0.14618635013361636
1     0.14618770484402785
2     0.14618967287951382
3     0.14619090499047527
4     0.14618968999375448
5     0.14618427410300944
6     0.14617320389548485
7     0.14615566485049944
8     0.14613171326299673
9     0.1461023379594032
10     0.14606939812575723
11     0.14603543021814674
12     0.14600335229271724
13     0.14597610887362863
14     0.14595630613217556
15     0.14594588669530625
