#Bead    Energy (eV)
0     0.13215069260352774
1     0.13328510893692233
2     0.13537171624379446
3     0.13807397493098747
4     0.14095577438872078
5     0.14354714187596584
6     0.14540427362568062
7     0.14618109793552514
8     0.14570515432718495
9     0.1441159919601345
10     0.14176328813689582
11     0.1390588814734445
12     0.1363878226794033
13     0.13405004067180762
14     0.1323142173401438
15     0.13138958915111779
