#Bead    Energy (eV)
0     0.14615812909106254
1     0.14616343172038415
2     0.14617247580050768
3     0.1461824056338953
4     0.1461895627721617
5     0.1461901259896966
6     0.14618079878596005
7     0.14615945862716437
8     0.14612572381364505
9     0.14608107940432186
10     0.14602872374740541
11     0.14597319097959752
12     0.1459197797372712
13     0.14587387478245173
14     0.14584025745137436
15     0.14582249656697024
