#Bead    Energy (eV)
0     0.14616874025221727
1     0.1461727254172044
2     0.1461793974084925
3     0.14618638384830412
4     0.14619065184196486
5     0.14618904583456696
6     0.14617886492060966
7     0.14615841403139432
8     0.14612746471130686
9     0.14608735258981947
10     0.14604085936079714
11     0.1459918947094713
12     0.14594501271606516
13     0.1459048354288914
14     0.1458754649902771
15     0.14585996290783465
