7
# CELL(abcABC):   13.38377    13.38377    13.38377    90.00000    90.00000    90.00000  Step:           0  Bead:      12 forces{atomic_unit}  cell{angstrom}
       O -9.08861e-04  1.70594e-03  2.39112e-03
       O  7.01645e-04  2.66035e-03 -9.87301e-04
       H  1.26638e-03  3.01982e-04 -7.11989e-04
       H  1.07494e-04 -2.54825e-03 -9.16347e-04
       H  1.33905e-03 -9.20693e-04 -1.83395e-04
       H -1.24149e-03 -1.98935e-04  7.50278e-04
       H -1.26300e-03 -9.98567e-04 -3.42760e-04
7
# CELL(abcABC):   13.38377    13.38377    13.38377    90.00000    90.00000    90.00000  Step:           1  Bead:      12 forces{atomic_unit}  cell{angstrom}
       O -5.15415e-04 -2.94769e-04  8.82559e-04
       O  4.79545e-04  2.44881e-04 -7.92190e-04
       H  1.59335e-03  7.60879e-04  2.85267e-04
       H  7.55534e-05 -1.89520e-03 -7.15615e-04
       H  1.75894e-03  3.20908e-04  1.77026e-04
       H -1.59825e-03  6.24874e-04  1.71477e-04
       H -1.79480e-03  2.37486e-04 -8.79083e-06
7
# CELL(abcABC):   13.38377    13.38377    13.38377    90.00000    90.00000    90.00000  Step:           2  Bead:      12 forces{atomic_unit}  cell{angstrom}
       O -3.86270e-04 -6.61232e-04  6.03170e-04
       O  3.82742e-04 -2.05235e-04 -7.68749e-04
       H  1.57040e-03  7.96180e-04  4.03433e-04
       H  5.73266e-05 -1.54309e-03 -6.01585e-04
       H  1.73514e-03  4.99981e-04  2.12390e-04
       H -1.57964e-03  7.03899e-04  9.77039e-05
       H -1.77944e-03  4.08048e-04  5.36147e-05
7
# CELL(abcABC):   13.38377    13.38377    13.38377    90.00000    90.00000    90.00000  Step:           3  Bead:      12 forces{atomic_unit}  cell{angstrom}
       O -5.17355e-04  1.45347e-04  1.10468e-03
       O  2.30905e-03  1.14438e-03  9.81015e-04
       H  1.31242e-03  5.03140e-04 -5.99670e-05
       H  2.09010e-04 -1.31238e-03 -5.06981e-04
       H  3.34778e-04 -2.80484e-03 -4.79638e-04
       H -2.28615e-03  2.51709e-03 -9.95404e-04
       H -1.36163e-03 -1.95942e-04 -4.35421e-05
7
# CELL(abcABC):   13.38377    13.38377    13.38377    90.00000    90.00000    90.00000  Step:           4  Bead:      12 forces{atomic_unit}  cell{angstrom}
       O -3.27019e-04  1.76490e-04  1.13563e-03
       O  8.03709e-04  8.49789e-04 -1.40898e-04
       H  1.22366e-03  4.43129e-04 -1.48695e-04
       H  1.69436e-04 -1.08785e-03 -4.49863e-04
       H  9.06201e-04 -1.47042e-03 -1.63458e-04
       H -1.55208e-03  1.36275e-03 -1.86834e-04
       H -1.22207e-03 -2.71295e-04 -4.63686e-05
7
# CELL(abcABC):   13.38377    13.38377    13.38377    90.00000    90.00000    90.00000  Step:           5  Bead:      12 forces{atomic_unit}  cell{angstrom}
       O -1.32835e-04 -2.01470e-04  7.93545e-04
       O -5.71242e-04  1.18371e-04 -1.09020e-03
       H  1.22068e-03  4.88558e-04  1.39536e-05
       H  1.18801e-04 -7.10318e-04 -3.38916e-04
       H  1.47837e-03 -3.54362e-05  1.79719e-04
       H -9.48354e-04  4.57229e-04  4.13446e-04
       H -1.16754e-03 -1.16080e-04  2.38828e-05
7
# CELL(abcABC):   13.38377    13.38377    13.38377    90.00000    90.00000    90.00000  Step:           6  Bead:      12 forces{atomic_unit}  cell{angstrom}
       O -1.45398e-04 -2.29640e-04  6.84432e-04
       O -4.14632e-04  9.66267e-05 -8.97266e-04
       H  1.16997e-03  4.53925e-04  2.63796e-05
       H  1.19202e-04 -4.43977e-04 -2.51136e-04
       H  1.27425e-03 -3.18390e-04  1.03874e-04
       H -9.65711e-04  6.17217e-04  2.91968e-04
       H -1.03779e-03 -1.74208e-04  4.28514e-05
7
# CELL(abcABC):   13.38377    13.38377    13.38377    90.00000    90.00000    90.00000  Step:           7  Bead:      12 forces{atomic_unit}  cell{angstrom}
       O -2.13311e-04 -6.75001e-05  6.70055e-04
       O  1.50028e-04  3.22780e-04 -4.16220e-04
       H  1.01845e-03  3.29565e-04 -9.34961e-05
       H  1.11703e-04 -2.88722e-05 -1.06773e-04
       H  7.55652e-04 -1.08235e-03 -1.16212e-04
       H -1.06587e-03  9.25378e-04  1.63496e-05
       H -7.58278e-04 -3.98130e-04  4.41432e-05
7
# CELL(abcABC):   13.38377    13.38377    13.38377    90.00000    90.00000    90.00000  Step:           8  Bead:      12 forces{atomic_unit}  cell{angstrom}
       O -1.68689e-04 -8.66990e-05  6.15479e-04
       O -2.49983e-05  2.18259e-04 -5.43389e-04
       H  9.49080e-04  2.81769e-04 -1.29469e-04
       H  7.87125e-05  1.81305e-04 -3.52628e-05
       H  7.54746e-04 -8.42428e-04 -1.10168e-04
       H -9.23686e-04  6.75112e-04  1.38594e-04
       H -6.61929e-04 -4.27067e-04  6.54666e-05
7
# CELL(abcABC):   13.38377    13.38377    13.38377    90.00000    90.00000    90.00000  Step:           9  Bead:      12 forces{atomic_unit}  cell{angstrom}
       O -8.96250e-05 -2.20520e-04  4.81194e-04
       O -2.27472e-04  1.45945e-06 -6.80427e-04
       H  8.98986e-04  2.59493e-04 -1.12416e-04
       H  3.60330e-05  3.76053e-04  3.49885e-05
       H  8.01806e-04 -4.52236e-04 -9.18803e-05
       H -7.93186e-04  3.94353e-04  2.58161e-04
       H -6.25933e-04 -3.59381e-04  1.09925e-04
7
# CELL(abcABC):   13.38377    13.38377    13.38377    90.00000    90.00000    90.00000  Step:          10  Bead:      12 forces{atomic_unit}  cell{angstrom}
       O -5.55048e-05 -2.52213e-04  4.13260e-04
       O -2.10491e-04 -5.60050e-05 -6.67622e-04
       H  8.40991e-04  2.20894e-04 -1.33227e-04
       H  1.56035e-06  5.20527e-04  9.09580e-05
       H  7.39769e-04 -3.21644e-04 -1.30112e-04
       H -7.44868e-04  2.37554e-04  2.89383e-04
       H -5.71329e-04 -3.51258e-04  1.37396e-04
