7
# CELL(abcABC):   13.38377    13.38377    13.38377    90.00000    90.00000    90.00000  Step:           0  Bead:      12 positions{angstrom}  cell{angstrom}
       O  5.54810e-01 -9.55480e-01 -1.98800e-01
       O  2.93908e+00 -9.01550e-01 -5.08900e-02
       H  1.68750e-01 -1.34489e+00 -9.96690e-01
       H  1.74588e+00 -9.04260e-01 -1.15740e-01
       H  3.34611e+00 -6.09300e-02  2.05650e-01
       H  3.37182e+00 -1.61833e+00  4.35200e-01
       H  8.14400e-02 -1.36290e-01  8.53000e-03
7
# CELL(abcABC):   13.38377    13.38377    13.38377    90.00000    90.00000    90.00000  Step:           1  Bead:      12 positions{angstrom}  cell{angstrom}
       O  5.54329e-01 -9.54577e-01 -1.97535e-01
       O  2.93945e+00 -9.00124e-01 -5.14110e-02
       H  1.69420e-01 -1.34473e+00 -9.97067e-01
       H  1.74594e+00 -9.05608e-01 -1.16225e-01
       H  3.34680e+00 -6.14537e-02  2.05715e-01
       H  3.37118e+00 -1.61849e+00  4.35451e-01
       H  8.07717e-02 -1.36818e-01  8.34862e-03
7
# CELL(abcABC):   13.38377    13.38377    13.38377    90.00000    90.00000    90.00000  Step:           2  Bead:      12 positions{angstrom}  cell{angstrom}
       O  5.54046e-01 -9.54402e-01 -1.96925e-01
       O  2.93969e+00 -8.99638e-01 -5.17818e-02
       H  1.70060e-01 -1.34447e+00 -9.97094e-01
       H  1.74597e+00 -9.06527e-01 -1.16565e-01
       H  3.34748e+00 -6.15344e-02  2.05877e-01
       H  3.37056e+00 -1.61839e+00  4.35487e-01
       H  8.00760e-02 -1.36903e-01  8.29420e-03
7
# CELL(abcABC):   13.38377    13.38377    13.38377    90.00000    90.00000    90.00000  Step:           3  Bead:      12 positions{angstrom}  cell{angstrom}
       O  5.53882e-01 -9.54674e-01 -1.96611e-01
       O  2.93990e+00 -9.03039e-01 -5.24825e-02
       H  1.70920e-01 -1.34408e+00 -9.96881e-01
       H  1.74600e+00 -9.07408e-01 -1.16861e-01
       H  3.35234e+00 -5.44329e-02  1.75709e-01
       H  3.36612e+00 -1.60796e+00  4.62814e-01
       H  7.91088e-02 -1.36695e-01  8.35394e-03
7
# CELL(abcABC):   13.38377    13.38377    13.38377    90.00000    90.00000    90.00000  Step:           4  Bead:      12 positions{angstrom}  cell{angstrom}
       O  5.53663e-01 -9.54723e-01 -1.96185e-01
       O  2.94061e+00 -9.02294e-01 -5.22985e-02
       H  1.71510e-01 -1.34382e+00 -9.96852e-01
       H  1.74607e+00 -9.08008e-01 -1.17104e-01
       H  3.35219e+00 -5.60328e-02  1.79470e-01
       H  3.36571e+00 -1.60844e+00  4.59090e-01
       H  7.84724e-02 -1.36702e-01  8.33528e-03
7
# CELL(abcABC):   13.38377    13.38377    13.38377    90.00000    90.00000    90.00000  Step:           5  Bead:      12 positions{angstrom}  cell{angstrom}
       O  5.53386e-01 -9.54604e-01 -1.95384e-01
       O  2.94131e+00 -9.01524e-01 -5.23299e-02
       H  1.72391e-01 -1.34348e+00 -9.96933e-01
       H  1.74618e+00 -9.08869e-01 -1.17453e-01
       H  3.35265e+00 -5.73722e-02  1.80665e-01
       H  3.36472e+00 -1.60789e+00  4.57731e-01
       H  7.75734e-02 -1.36866e-01  8.29529e-03
7
# CELL(abcABC):   13.38377    13.38377    13.38377    90.00000    90.00000    90.00000  Step:           6  Bead:      12 positions{angstrom}  cell{angstrom}
       O  5.53241e-01 -9.54601e-01 -1.94818e-01
       O  2.94146e+00 -9.02015e-01 -5.27076e-02
       H  1.73169e-01 -1.34319e+00 -9.96944e-01
       H  1.74627e+00 -9.09499e-01 -1.17700e-01
       H  3.35432e+00 -5.63464e-02  1.73483e-01
       H  3.36306e+00 -1.60481e+00  4.64147e-01
       H  7.68000e-02 -1.36956e-01  8.30581e-03
7
# CELL(abcABC):   13.38377    13.38377    13.38377    90.00000    90.00000    90.00000  Step:           7  Bead:      12 positions{angstrom}  cell{angstrom}
       O  5.53006e-01 -9.54716e-01 -1.93884e-01
       O  2.94151e+00 -9.02882e-01 -5.35122e-02
       H  1.74624e-01 -1.34265e+00 -9.96922e-01
       H  1.74642e+00 -9.10435e-01 -1.18094e-01
       H  3.35719e+00 -5.47597e-02  1.62240e-01
       H  3.36030e+00 -1.59984e+00  4.74282e-01
       H  7.54128e-02 -1.37124e-01  8.35237e-03
7
# CELL(abcABC):   13.38377    13.38377    13.38377    90.00000    90.00000    90.00000  Step:           8  Bead:      12 positions{angstrom}  cell{angstrom}
       O  5.52839e-01 -9.54784e-01 -1.93332e-01
       O  2.94162e+00 -9.02784e-01 -5.38990e-02
       H  1.75441e-01 -1.34235e+00 -9.96945e-01
       H  1.74651e+00 -9.10803e-01 -1.18283e-01
       H  3.35809e+00 -5.50346e-02  1.60857e-01
       H  3.35930e+00 -1.59875e+00  4.75552e-01
       H  7.46870e-02 -1.37297e-01  8.36849e-03
7
# CELL(abcABC):   13.38377    13.38377    13.38377    90.00000    90.00000    90.00000  Step:           9  Bead:      12 positions{angstrom}  cell{angstrom}
       O  5.52649e-01 -9.54856e-01 -1.92680e-01
       O  2.94169e+00 -9.02583e-01 -5.44053e-02
       H  1.76393e-01 -1.34203e+00 -9.97031e-01
       H  1.74660e+00 -9.10975e-01 -1.18428e-01
       H  3.35899e+00 -5.55901e-02  1.60121e-01
       H  3.35826e+00 -1.59786e+00  4.76276e-01
       H  7.39178e-02 -1.37606e-01  8.40319e-03
7
# CELL(abcABC):   13.38377    13.38377    13.38377    90.00000    90.00000    90.00000  Step:          10  Bead:      12 positions{angstrom}  cell{angstrom}
       O  5.52501e-01 -9.54976e-01 -1.92102e-01
       O  2.94166e+00 -9.02563e-01 -5.49555e-02
       H  1.77311e-01 -1.34173e+00 -9.97113e-01
       H  1.74667e+00 -9.11001e-01 -1.18519e-01
       H  3.35997e+00 -5.58963e-02  1.58643e-01
       H  3.35721e+00 -1.59679e+00  4.77683e-01
       H  7.31958e-02 -1.37906e-01  8.46443e-03
