7
# CELL(abcABC):   13.38377    13.38377    13.38377    90.00000    90.00000    90.00000  Step:           0  Bead:      13 forces{atomic_unit}  cell{angstrom}
       O -6.60015e-04  2.05099e-03  2.32698e-03
       O  4.91717e-04  2.69773e-03 -1.24453e-03
       H  1.30350e-03  9.63041e-05 -7.17918e-04
       H  8.25068e-05 -2.67500e-03 -7.11937e-04
       H  1.33642e-03 -9.31097e-04 -1.28884e-04
       H -1.26658e-03 -2.32410e-04  7.00834e-04
       H -1.28716e-03 -1.00645e-03 -2.25414e-04
7
# CELL(abcABC):   13.38377    13.38377    13.38377    90.00000    90.00000    90.00000  Step:           1  Bead:      13 forces{atomic_unit}  cell{angstrom}
       O -3.56125e-04 -8.03809e-05  7.04988e-04
       O  3.15600e-04  2.13105e-04 -5.82146e-04
       H  1.68085e-03  6.19914e-04  3.93406e-04
       H  5.67695e-05 -2.00306e-03 -5.63944e-04
       H  1.80549e-03  3.87489e-04  2.39964e-05
       H -1.66100e-03  5.79975e-04 -9.05416e-05
       H -1.84034e-03  2.82162e-04  1.15065e-04
7
# CELL(abcABC):   13.38377    13.38377    13.38377    90.00000    90.00000    90.00000  Step:           2  Bead:      13 forces{atomic_unit}  cell{angstrom}
       O -3.53796e-04 -4.21024e-04  3.68856e-04
       O  2.58981e-03  6.82951e-04  1.59850e-03
       H  1.67836e-03  6.36994e-04  5.65831e-04
       H  2.43365e-04 -1.64252e-03 -4.53167e-04
       H  4.56585e-04 -2.76710e-03  3.06770e-05
       H -2.76928e-03  3.05107e-03 -2.30066e-03
       H -1.84462e-03  4.57264e-04  1.90198e-04
7
# CELL(abcABC):   13.38377    13.38377    13.38377    90.00000    90.00000    90.00000  Step:           3  Bead:      13 forces{atomic_unit}  cell{angstrom}
       O -1.20593e-04  3.29361e-04  1.01354e-03
       O  3.56411e-04  8.31261e-04 -1.94503e-04
       H  1.36031e-03  3.39419e-04 -2.23679e-06
       H  2.31147e-04 -1.40781e-03 -4.18974e-04
       H  1.12831e-03 -1.46574e-03  1.80594e-04
       H -1.55444e-03  1.48659e-03 -6.39042e-04
       H -1.40162e-03 -1.14019e-04  6.15557e-05
7
# CELL(abcABC):   13.38377    13.38377    13.38377    90.00000    90.00000    90.00000  Step:           4  Bead:      13 forces{atomic_unit}  cell{angstrom}
       O -5.66175e-05  3.87783e-04  1.03654e-03
       O -6.27945e-04  5.87212e-04 -9.35970e-04
       H  1.27940e-03  2.88168e-04 -7.05413e-05
       H  2.00755e-04 -1.17749e-03 -3.71216e-04
       H  1.48204e-03 -6.26630e-04  2.29113e-04
       H -1.03707e-03  7.76755e-04  6.63547e-05
       H -1.24136e-03 -2.35076e-04  4.60815e-05
7
# CELL(abcABC):   13.38377    13.38377    13.38377    90.00000    90.00000    90.00000  Step:           5  Bead:      13 forces{atomic_unit}  cell{angstrom}
       O -1.43638e-04  1.97716e-05  6.45925e-04
       O -2.83512e-04  2.58137e-04 -5.83358e-04
       H  1.29479e-03  3.58686e-04  1.51472e-04
       H  1.78069e-04 -7.78415e-04 -2.72132e-04
       H  1.27424e-03 -7.45551e-04  1.93549e-04
       H -1.14945e-03  1.01260e-03 -2.36703e-04
       H -1.17152e-03 -1.25684e-04  1.00840e-04
7
# CELL(abcABC):   13.38377    13.38377    13.38377    90.00000    90.00000    90.00000  Step:           6  Bead:      13 forces{atomic_unit}  cell{angstrom}
       O -1.79047e-04 -4.56140e-05  5.54533e-04
       O -1.55997e-04  1.85206e-04 -5.07815e-04
       H  1.22507e-03  3.34185e-04  1.51634e-04
       H  1.51846e-04 -4.97877e-04 -2.00941e-04
       H  1.12884e-03 -7.88032e-04  1.57853e-04
       H -1.11615e-03  9.78962e-04 -2.65484e-04
       H -1.05303e-03 -1.65973e-04  1.10923e-04
7
# CELL(abcABC):   13.38377    13.38377    13.38377    90.00000    90.00000    90.00000  Step:           7  Bead:      13 forces{atomic_unit}  cell{angstrom}
       O -1.52141e-04  4.15298e-05  6.17545e-04
       O -3.66536e-04  1.40226e-04 -7.78647e-04
       H  1.02354e-03  2.08212e-04 -3.06613e-05
       H  8.50392e-05 -6.02299e-05 -9.32189e-05
       H  1.04551e-03 -4.94863e-04  8.45347e-05
       H -8.27480e-04  4.99786e-04  1.04167e-04
       H -8.08471e-04 -3.34319e-04  9.77835e-05
7
# CELL(abcABC):   13.38377    13.38377    13.38377    90.00000    90.00000    90.00000  Step:           8  Bead:      13 forces{atomic_unit}  cell{angstrom}
       O -1.35664e-04  6.57536e-06  5.87472e-04
       O -3.22548e-04  8.25224e-05 -7.85271e-04
       H  9.36321e-04  1.65146e-04 -7.93847e-05
       H  4.85045e-05  1.61960e-04 -3.68431e-05
       H  9.54486e-04 -4.07563e-04  2.95145e-05
       H -7.62270e-04  3.47084e-04  1.79048e-04
       H -7.20681e-04 -3.58943e-04  1.03701e-04
7
# CELL(abcABC):   13.38377    13.38377    13.38377    90.00000    90.00000    90.00000  Step:           9  Bead:      13 forces{atomic_unit}  cell{angstrom}
       O -1.32336e-04 -1.32803e-04  4.54601e-04
       O -1.60199e-05 -2.21974e-06 -5.56983e-04
       H  8.79893e-04  1.58724e-04 -4.96001e-05
       H  9.74580e-06  3.74224e-04  1.99393e-05
       H  7.74061e-04 -4.63560e-04 -4.54222e-05
       H -8.33185e-04  3.75145e-04  4.38405e-05
       H -6.81119e-04 -3.07919e-04  1.34857e-04
7
# CELL(abcABC):   13.38377    13.38377    13.38377    90.00000    90.00000    90.00000  Step:          10  Bead:      13 forces{atomic_unit}  cell{angstrom}
       O -1.09817e-04 -1.82028e-04  3.99345e-04
       O  1.03606e-04 -4.40920e-05 -4.80038e-04
       H  8.13617e-04  1.32910e-04 -6.76351e-05
       H -2.73658e-05  5.33289e-04  6.04842e-05
       H  6.69469e-04 -4.12246e-04 -1.10714e-04
       H -8.23191e-04  2.77323e-04  5.03888e-05
       H -6.27253e-04 -3.06876e-04  1.46481e-04
