7
# CELL(abcABC):   13.38377    13.38377    13.38377    90.00000    90.00000    90.00000  Step:           0  Bead:       3 positions{angstrom}  cell{angstrom}
       O  5.54810e-01 -9.55480e-01 -1.98800e-01
       O  2.92728e+00 -8.11320e-01  3.78600e-02
       H  1.68750e-01 -1.34489e+00 -9.96690e-01
       H  1.74588e+00 -9.04260e-01 -1.15740e-01
       H  3.25457e+00 -1.01198e+00  9.27100e-01
       H  3.50712e+00 -1.23616e+00 -6.10700e-01
       H  8.14400e-02 -1.36290e-01  8.53000e-03
7
# CELL(abcABC):   13.38377    13.38377    13.38377    90.00000    90.00000    90.00000  Step:           1  Bead:       3 positions{angstrom}  cell{angstrom}
       O  5.54388e-01 -9.55565e-01 -1.98212e-01
       O  2.92758e+00 -8.10760e-01  3.81618e-02
       H  1.68732e-01 -1.34481e+00 -9.96672e-01
       H  1.74591e+00 -9.04382e-01 -1.16037e-01
       H  3.25465e+00 -1.01218e+00  9.26857e-01
       H  3.50711e+00 -1.23634e+00 -6.10531e-01
       H  8.14598e-02 -1.36315e-01  8.06838e-03
7
# CELL(abcABC):   13.38377    13.38377    13.38377    90.00000    90.00000    90.00000  Step:           2  Bead:       3 positions{angstrom}  cell{angstrom}
       O  5.54119e-01 -9.55760e-01 -1.97834e-01
       O  2.92779e+00 -8.10328e-01  3.82290e-02
       H  1.68737e-01 -1.34473e+00 -9.96604e-01
       H  1.74594e+00 -9.04460e-01 -1.16236e-01
       H  3.25475e+00 -1.01234e+00  9.26774e-01
       H  3.50708e+00 -1.23646e+00 -6.10350e-01
       H  8.14299e-02 -1.36238e-01  7.72428e-03
7
# CELL(abcABC):   13.38377    13.38377    13.38377    90.00000    90.00000    90.00000  Step:           3  Bead:       3 positions{angstrom}  cell{angstrom}
       O  5.53996e-01 -9.56087e-01 -1.97592e-01
       O  2.92707e+00 -8.09397e-01  4.43686e-02
       H  1.68724e-01 -1.34468e+00 -9.96455e-01
       H  1.74594e+00 -9.04465e-01 -1.16353e-01
       H  3.25532e+00 -1.07157e+00  9.24152e-01
       H  3.51052e+00 -1.18862e+00 -6.37718e-01
       H  8.14056e-02 -1.36029e-01  7.39906e-03
7
# CELL(abcABC):   13.38377    13.38377    13.38377    90.00000    90.00000    90.00000  Step:           4  Bead:       3 positions{angstrom}  cell{angstrom}
       O  5.53744e-01 -9.56300e-01 -1.97283e-01
       O  2.92862e+00 -8.10053e-01  4.35308e-02
       H  1.68732e-01 -1.34461e+00 -9.96375e-01
       H  1.74606e+00 -9.04504e-01 -1.16479e-01
       H  3.25489e+00 -1.05996e+00  9.22936e-01
       H  3.50895e+00 -1.19741e+00 -6.30924e-01
       H  8.13774e-02 -1.35936e-01  7.08485e-03
7
# CELL(abcABC):   13.38377    13.38377    13.38377    90.00000    90.00000    90.00000  Step:           5  Bead:       3 positions{angstrom}  cell{angstrom}
       O  5.53546e-01 -9.56537e-01 -1.96799e-01
       O  2.92968e+00 -8.10424e-01  4.37490e-02
       H  1.68717e-01 -1.34456e+00 -9.96283e-01
       H  1.74623e+00 -9.04515e-01 -1.16615e-01
       H  3.25466e+00 -1.05832e+00  9.20918e-01
       H  3.50803e+00 -1.19824e+00 -6.28380e-01
       H  8.13991e-02 -1.35818e-01  6.61530e-03
7
# CELL(abcABC):   13.38377    13.38377    13.38377    90.00000    90.00000    90.00000  Step:           6  Bead:       3 positions{angstrom}  cell{angstrom}
       O  5.53516e-01 -9.56726e-01 -1.96470e-01
       O  2.92947e+00 -8.10223e-01  4.52619e-02
       H  1.68708e-01 -1.34456e+00 -9.96175e-01
       H  1.74637e+00 -9.04482e-01 -1.16673e-01
       H  3.25491e+00 -1.07224e+00  9.18912e-01
       H  3.50857e+00 -1.18675e+00 -6.33513e-01
       H  8.14519e-02 -1.35696e-01  6.25485e-03
7
# CELL(abcABC):   13.38377    13.38377    13.38377    90.00000    90.00000    90.00000  Step:           7  Bead:       3 positions{angstrom}  cell{angstrom}
       O  5.53464e-01 -9.57073e-01 -1.95939e-01
       O  2.92881e+00 -8.09721e-01  4.73299e-02
       H  1.68733e-01 -1.34455e+00 -9.95911e-01
       H  1.74663e+00 -9.04405e-01 -1.16731e-01
       H  3.25542e+00 -1.09258e+00  9.15791e-01
       H  3.50943e+00 -1.17012e+00 -6.40651e-01
       H  8.15825e-02 -1.35477e-01  5.59085e-03
7
# CELL(abcABC):   13.38377    13.38377    13.38377    90.00000    90.00000    90.00000  Step:           8  Bead:       3 positions{angstrom}  cell{angstrom}
       O  5.53358e-01 -9.57259e-01 -1.95637e-01
       O  2.92874e+00 -8.09556e-01  4.76532e-02
       H  1.68777e-01 -1.34453e+00 -9.95734e-01
       H  1.74679e+00 -9.04369e-01 -1.16752e-01
       H  3.25553e+00 -1.09548e+00  9.14555e-01
       H  3.50934e+00 -1.16779e+00 -6.40821e-01
       H  8.16761e-02 -1.35374e-01  5.18686e-03
7
# CELL(abcABC):   13.38377    13.38377    13.38377    90.00000    90.00000    90.00000  Step:           9  Bead:       3 positions{angstrom}  cell{angstrom}
       O  5.53222e-01 -9.57432e-01 -1.95305e-01
       O  2.92862e+00 -8.09346e-01  4.79005e-02
       H  1.68841e-01 -1.34456e+00 -9.95513e-01
       H  1.74696e+00 -9.04320e-01 -1.16731e-01
       H  3.25561e+00 -1.09738e+00  9.13247e-01
       H  3.50921e+00 -1.16634e+00 -6.40429e-01
       H  8.18292e-02 -1.35262e-01  4.70825e-03
7
# CELL(abcABC):   13.38377    13.38377    13.38377    90.00000    90.00000    90.00000  Step:          10  Bead:       3 positions{angstrom}  cell{angstrom}
       O  5.53131e-01 -9.57586e-01 -1.95017e-01
       O  2.92832e+00 -8.09073e-01  4.82228e-02
       H  1.68899e-01 -1.34462e+00 -9.95298e-01
       H  1.74711e+00 -9.04266e-01 -1.16677e-01
       H  3.25575e+00 -1.10060e+00  9.11976e-01
       H  3.50923e+00 -1.16384e+00 -6.40717e-01
       H  8.19893e-02 -1.35132e-01  4.26435e-03
