7
# CELL(abcABC):   13.38377    13.38377    13.38377    90.00000    90.00000    90.00000  Step:           0  Bead:      14 positions{angstrom}  cell{angstrom}
       O  5.54810e-01 -9.55480e-01 -1.98800e-01
       O  2.93844e+00 -9.32270e-01 -4.53800e-02
       H  1.68750e-01 -1.34489e+00 -9.96690e-01
       H  1.74588e+00 -9.04260e-01 -1.15740e-01
       H  3.38410e+00 -7.32600e-02 -8.56300e-02
       H  3.34228e+00 -1.46001e+00  6.58690e-01
       H  8.14400e-02 -1.36290e-01  8.53000e-03
7
# CELL(abcABC):   13.38377    13.38377    13.38377    90.00000    90.00000    90.00000  Step:           1  Bead:      14 positions{angstrom}  cell{angstrom}
       O  5.54565e-01 -9.54233e-01 -1.97604e-01
       O  2.93839e+00 -9.37980e-01 -4.42775e-02
       H  1.69433e-01 -1.34495e+00 -9.97055e-01
       H  1.74591e+00 -9.05705e-01 -1.15997e-01
       H  3.39373e+00 -8.27313e-02 -1.54114e-01
       H  3.33506e+00 -1.41815e+00  7.08532e-01
       H  8.07666e-02 -1.36811e-01  8.44168e-03
7
# CELL(abcABC):   13.38377    13.38377    13.38377    90.00000    90.00000    90.00000  Step:           2  Bead:      14 positions{angstrom}  cell{angstrom}
       O  5.54364e-01 -9.53822e-01 -1.97112e-01
       O  2.93997e+00 -9.35820e-01 -4.37656e-02
       H  1.70102e-01 -1.34485e+00 -9.97009e-01
       H  1.74605e+00 -9.06692e-01 -1.16176e-01
       H  3.39246e+00 -8.36217e-02 -1.45198e-01
       H  3.33459e+00 -1.42211e+00  7.00843e-01
       H  8.00521e-02 -1.36868e-01  8.45983e-03
7
# CELL(abcABC):   13.38377    13.38377    13.38377    90.00000    90.00000    90.00000  Step:           3  Bead:      14 positions{angstrom}  cell{angstrom}
       O  5.54362e-01 -9.53944e-01 -1.96969e-01
       O  2.94103e+00 -9.33878e-01 -4.32786e-02
       H  1.71001e-01 -1.34461e+00 -9.96652e-01
       H  1.74626e+00 -9.07625e-01 -1.16351e-01
       H  3.39100e+00 -8.35297e-02 -1.31644e-01
       H  3.33445e+00 -1.42854e+00  6.89643e-01
       H  7.90587e-02 -1.36560e-01  8.58464e-03
7
# CELL(abcABC):   13.38377    13.38377    13.38377    90.00000    90.00000    90.00000  Step:           4  Bead:      14 positions{angstrom}  cell{angstrom}
       O  5.54442e-01 -9.53792e-01 -1.96676e-01
       O  2.94062e+00 -9.34622e-01 -4.32202e-02
       H  1.71638e-01 -1.34451e+00 -9.96517e-01
       H  1.74640e+00 -9.08311e-01 -1.16469e-01
       H  3.39287e+00 -8.54873e-02 -1.40273e-01
       H  3.33310e+00 -1.42218e+00  6.95451e-01
       H  7.84054e-02 -1.36492e-01  8.64874e-03
7
# CELL(abcABC):   13.38377    13.38377    13.38377    90.00000    90.00000    90.00000  Step:           5  Bead:      14 positions{angstrom}  cell{angstrom}
       O  5.54473e-01 -9.53343e-01 -1.96063e-01
       O  2.93961e+00 -9.35452e-01 -4.37376e-02
       H  1.72585e-01 -1.34442e+00 -9.96425e-01
       H  1.74656e+00 -9.09287e-01 -1.16650e-01
       H  3.39554e+00 -8.74608e-02 -1.50749e-01
       H  3.33153e+00 -1.41482e+00  7.03028e-01
       H  7.75218e-02 -1.36599e-01  8.70311e-03
7
# CELL(abcABC):   13.38377    13.38377    13.38377    90.00000    90.00000    90.00000  Step:           6  Bead:      14 positions{angstrom}  cell{angstrom}
       O  5.54399e-01 -9.53110e-01 -1.95645e-01
       O  2.93935e+00 -9.35124e-01 -4.41276e-02
       H  1.73406e-01 -1.34429e+00 -9.96284e-01
       H  1.74669e+00 -9.09981e-01 -1.16794e-01
       H  3.39633e+00 -8.78818e-02 -1.50200e-01
       H  3.33087e+00 -1.41443e+00  7.02485e-01
       H  7.67680e-02 -1.36659e-01  8.76039e-03
7
# CELL(abcABC):   13.38377    13.38377    13.38377    90.00000    90.00000    90.00000  Step:           7  Bead:      14 positions{angstrom}  cell{angstrom}
       O  5.54210e-01 -9.52838e-01 -1.94967e-01
       O  2.93921e+00 -9.34468e-01 -4.46999e-02
       H  1.74916e-01 -1.34405e+00 -9.95985e-01
       H  1.74690e+00 -9.11023e-01 -1.17022e-01
       H  3.39749e+00 -8.85776e-02 -1.47963e-01
       H  3.32965e+00 -1.41443e+00  7.00425e-01
       H  7.53842e-02 -1.36735e-01  8.88642e-03
7
# CELL(abcABC):   13.38377    13.38377    13.38377    90.00000    90.00000    90.00000  Step:           8  Bead:      14 positions{angstrom}  cell{angstrom}
       O  5.54113e-01 -9.52677e-01 -1.94547e-01
       O  2.93900e+00 -9.34521e-01 -4.50695e-02
       H  1.75748e-01 -1.34396e+00 -9.95861e-01
       H  1.74698e+00 -9.11460e-01 -1.17119e-01
       H  3.39864e+00 -8.93985e-02 -1.50088e-01
       H  3.32873e+00 -1.41243e+00  7.01770e-01
       H  7.46259e-02 -1.36815e-01  8.95979e-03
7
# CELL(abcABC):   13.38377    13.38377    13.38377    90.00000    90.00000    90.00000  Step:           9  Bead:      14 positions{angstrom}  cell{angstrom}
       O  5.53992e-01 -9.52508e-01 -1.93996e-01
       O  2.93878e+00 -9.34644e-01 -4.56380e-02
       H  1.76676e-01 -1.34390e+00 -9.95797e-01
       H  1.74703e+00 -9.11700e-01 -1.17195e-01
       H  3.39997e+00 -9.01917e-02 -1.52573e-01
       H  3.32769e+00 -1.41037e+00  7.03492e-01
       H  7.37826e-02 -1.36975e-01  9.04473e-03
7
# CELL(abcABC):   13.38377    13.38377    13.38377    90.00000    90.00000    90.00000  Step:          10  Bead:      14 positions{angstrom}  cell{angstrom}
       O  5.53861e-01 -9.52424e-01 -1.93493e-01
       O  2.93874e+00 -9.34603e-01 -4.61718e-02
       H  1.77555e-01 -1.34383e+00 -9.95737e-01
       H  1.74705e+00 -9.11774e-01 -1.17253e-01
       H  3.40093e+00 -9.06459e-02 -1.53134e-01
       H  3.32682e+00 -1.40962e+00  7.03817e-01
       H  7.29836e-02 -1.37135e-01  9.13343e-03
