7
# CELL(abcABC):   13.38377    13.38377    13.38377    90.00000    90.00000    90.00000  Step:           0  Bead:       5 forces{atomic_unit}  cell{angstrom}
       O -1.37111e-03 -1.47020e-04  1.72468e-03
       O  1.07512e-03  1.81078e-03  4.32607e-04
       H  1.78778e-04  4.44174e-04 -1.11474e-04
       H  1.05788e-04 -6.05439e-04 -9.02507e-04
       H  4.38241e-04 -1.01979e-03 -4.08262e-04
       H -2.15253e-04 -2.23871e-04  3.96429e-04
       H -2.11882e-04 -2.61718e-04 -1.12896e-03
7
# CELL(abcABC):   13.38377    13.38377    13.38377    90.00000    90.00000    90.00000  Step:           1  Bead:       5 forces{atomic_unit}  cell{angstrom}
       O -8.65099e-04 -9.16374e-04  1.15935e-03
       O  7.58844e-04  1.36785e-03 -5.07099e-04
       H  2.60799e-04  5.40648e-04  1.65420e-04
       H  7.12546e-05 -4.14795e-04 -6.60047e-04
       H  6.01182e-04 -9.14063e-04  2.63601e-04
       H -3.41619e-04  2.44569e-06  5.16019e-04
       H -4.86412e-04  3.34506e-04 -9.36750e-04
7
# CELL(abcABC):   13.38377    13.38377    13.38377    90.00000    90.00000    90.00000  Step:           2  Bead:       5 forces{atomic_unit}  cell{angstrom}
       O -6.61252e-04 -1.01855e-03  1.02240e-03
       O  5.93013e-04  1.23981e-03 -6.73167e-04
       H  2.53443e-04  5.15053e-04  1.90764e-04
       H  5.21368e-05 -3.14074e-04 -5.28718e-04
       H  5.85270e-04 -8.71175e-04  3.72837e-04
       H -3.29440e-04  2.40945e-05  4.88151e-04
       H -4.92903e-04  4.27656e-04 -8.72930e-04
7
# CELL(abcABC):   13.38377    13.38377    13.38377    90.00000    90.00000    90.00000  Step:           3  Bead:       5 forces{atomic_unit}  cell{angstrom}
       O -6.55987e-04 -6.37598e-04  1.14757e-03
       O  5.27416e-04  1.28664e-03 -2.83302e-04
       H  1.93003e-04  3.92690e-04  4.84235e-05
       H  4.01201e-05 -2.54744e-04 -4.45155e-04
       H  4.14252e-04 -8.58438e-04  6.61814e-05
       H -2.36285e-04 -7.95012e-05  3.55729e-04
       H -2.83151e-04  1.49478e-04 -8.88693e-04
7
# CELL(abcABC):   13.38377    13.38377    13.38377    90.00000    90.00000    90.00000  Step:           4  Bead:       5 forces{atomic_unit}  cell{angstrom}
       O -6.11215e-04 -5.59241e-04  1.09265e-03
       O  4.83995e-04  1.21802e-03 -2.27800e-04
       H  1.91733e-04  3.50043e-04  4.28429e-05
       H  2.83706e-05 -1.96157e-04 -3.63517e-04
       H  3.42435e-04 -8.28896e-04  3.85683e-06
       H -2.28036e-04 -7.58021e-05  3.11934e-04
       H -2.09252e-04  8.98368e-05 -8.62592e-04
7
# CELL(abcABC):   13.38377    13.38377    13.38377    90.00000    90.00000    90.00000  Step:           5  Bead:       5 forces{atomic_unit}  cell{angstrom}
       O -5.46315e-04 -6.21289e-04  8.32698e-04
       O  2.20389e-03 -2.02139e-04  7.62378e-04
       H  1.94368e-04  3.02472e-04  1.42136e-04
       H  1.56301e-04 -5.74843e-05 -2.03853e-04
       H -3.81486e-04 -1.15881e-03 -2.53140e-03
       H -1.47297e-03  1.57915e-03  1.77447e-03
       H -1.53045e-04  1.58042e-04 -7.78036e-04
7
# CELL(abcABC):   13.38377    13.38377    13.38377    90.00000    90.00000    90.00000  Step:           6  Bead:       5 forces{atomic_unit}  cell{angstrom}
       O -3.14317e-04 -5.78758e-04  7.71821e-04
       O  7.22791e-04  4.50682e-04  5.88159e-05
       H  2.03073e-04  2.50002e-04  1.25927e-04
       H  1.15614e-04  1.75902e-05 -1.10771e-04
       H  5.41846e-05 -1.00578e-03 -1.14824e-03
       H -6.76226e-04  7.09851e-04  1.03005e-03
       H -1.02894e-04  1.57085e-04 -7.27317e-04
7
# CELL(abcABC):   13.38377    13.38377    13.38377    90.00000    90.00000    90.00000  Step:           7  Bead:       5 forces{atomic_unit}  cell{angstrom}
       O -9.69351e-05 -3.90789e-04  6.76592e-04
       O -6.37995e-04  9.26633e-04 -4.65070e-04
       H  2.12077e-04  1.39391e-04  1.00161e-04
       H  9.30427e-05  1.27912e-04  3.50170e-05
       H  3.76251e-04 -8.75802e-04 -1.30342e-04
       H  1.32928e-05  8.73399e-06  4.35652e-04
       H  3.97407e-05  6.53486e-05 -6.51073e-04
7
# CELL(abcABC):   13.38377    13.38377    13.38377    90.00000    90.00000    90.00000  Step:           8  Bead:       5 forces{atomic_unit}  cell{angstrom}
       O -1.00478e-04 -3.17442e-04  5.61069e-04
       O -2.96758e-04  5.71713e-04 -2.06889e-04
       H  2.26557e-04  8.85521e-05  1.33008e-04
       H  1.16353e-04  1.76867e-04  1.07038e-04
       H  1.82156e-04 -9.11096e-04 -7.12157e-04
       H -2.41411e-04  3.60563e-04  7.20026e-04
       H  1.10511e-04  3.29052e-05 -6.02211e-04
7
# CELL(abcABC):   13.38377    13.38377    13.38377    90.00000    90.00000    90.00000  Step:           9  Bead:       5 forces{atomic_unit}  cell{angstrom}
       O -7.35341e-05 -2.94857e-04  4.33414e-04
       O -3.34526e-04  4.95537e-04 -2.37721e-04
       H  2.49675e-04  4.10054e-05  1.64647e-04
       H  9.83846e-05  1.99982e-04  1.67782e-04
       H  1.45629e-04 -8.43205e-04 -6.20282e-04
       H -2.25201e-04  3.44754e-04  6.29774e-04
       H  1.39697e-04  5.77330e-05 -5.36801e-04
7
# CELL(abcABC):   13.38377    13.38377    13.38377    90.00000    90.00000    90.00000  Step:          10  Bead:       5 forces{atomic_unit}  cell{angstrom}
       O -6.39645e-05 -2.46983e-04  3.49576e-04
       O -2.83163e-04  4.17076e-04 -1.91260e-04
       H  2.57930e-04 -1.42236e-05  1.70357e-04
       H  7.86358e-05  2.08156e-04  2.08144e-04
       H  7.97826e-05 -7.75321e-04 -5.93985e-04
       H -2.35553e-04  3.42378e-04  5.37013e-04
       H  1.64989e-04  6.84707e-05 -4.81161e-04
