7
# CELL(abcABC):   13.38377    13.38377    13.38377    90.00000    90.00000    90.00000  Step:           0  Bead:      10 positions{angstrom}  cell{angstrom}
       O  5.54810e-01 -9.55480e-01 -1.98800e-01
       O  2.93832e+00 -8.70790e-01 -4.56400e-02
       H  1.68750e-01 -1.34489e+00 -9.96690e-01
       H  1.74588e+00 -9.04260e-01 -1.15740e-01
       H  3.31012e+00 -1.49810e-01  4.83590e-01
       H  3.40637e+00 -1.69000e+00  1.71470e-01
       H  8.14400e-02 -1.36290e-01  8.53000e-03
7
# CELL(abcABC):   13.38377    13.38377    13.38377    90.00000    90.00000    90.00000  Step:           1  Bead:      10 positions{angstrom}  cell{angstrom}
       O  5.54062e-01 -9.54967e-01 -1.97500e-01
       O  2.93893e+00 -8.69420e-01 -4.59515e-02
       H  1.69308e-01 -1.34456e+00 -9.97013e-01
       H  1.74596e+00 -9.05372e-01 -1.16375e-01
       H  3.31075e+00 -1.50384e-01  4.83591e-01
       H  3.40582e+00 -1.69011e+00  1.71796e-01
       H  8.08672e-02 -1.36758e-01  8.16532e-03
7
# CELL(abcABC):   13.38377    13.38377    13.38377    90.00000    90.00000    90.00000  Step:           2  Bead:      10 positions{angstrom}  cell{angstrom}
       O  5.53611e-01 -9.55021e-01 -1.96783e-01
       O  2.93933e+00 -8.68861e-01 -4.63682e-02
       H  1.69826e-01 -1.34421e+00 -9.97069e-01
       H  1.74601e+00 -9.06123e-01 -1.16815e-01
       H  3.31135e+00 -1.50586e-01  4.83797e-01
       H  3.40530e+00 -1.69000e+00  1.71990e-01
       H  8.02648e-02 -1.36828e-01  7.95542e-03
7
# CELL(abcABC):   13.38377    13.38377    13.38377    90.00000    90.00000    90.00000  Step:           3  Bead:      10 positions{angstrom}  cell{angstrom}
       O  5.53262e-01 -9.55543e-01 -1.96253e-01
       O  2.93968e+00 -8.68734e-01 -4.70360e-02
       H  1.70493e-01 -1.34370e+00 -9.96957e-01
       H  1.74605e+00 -9.06802e-01 -1.17230e-01
       H  3.31215e+00 -1.50571e-01  4.84218e-01
       H  3.40462e+00 -1.68970e+00  1.72168e-01
       H  7.94370e-02 -1.36628e-01  7.79034e-03
7
# CELL(abcABC):   13.38377    13.38377    13.38377    90.00000    90.00000    90.00000  Step:           4  Bead:      10 positions{angstrom}  cell{angstrom}
       O  5.52972e-01 -9.55762e-01 -1.95708e-01
       O  2.93995e+00 -8.68416e-01 -4.74943e-02
       H  1.70967e-01 -1.34337e+00 -9.96980e-01
       H  1.74608e+00 -9.07290e-01 -1.17532e-01
       H  3.31269e+00 -1.50691e-01  4.84454e-01
       H  3.40414e+00 -1.68958e+00  1.72322e-01
       H  7.88884e-02 -1.36624e-01  7.63201e-03
7
# CELL(abcABC):   13.38377    13.38377    13.38377    90.00000    90.00000    90.00000  Step:           5  Bead:      10 positions{angstrom}  cell{angstrom}
       O  5.52528e-01 -9.55898e-01 -1.94765e-01
       O  2.94044e+00 -8.69243e-01 -4.88278e-02
       H  1.71711e-01 -1.34290e+00 -9.97110e-01
       H  1.74612e+00 -9.08020e-01 -1.17958e-01
       H  3.31513e+00 -1.42726e-01  4.71931e-01
       H  3.40155e+00 -1.68946e+00  1.86777e-01
       H  7.81010e-02 -1.36781e-01  7.39731e-03
7
# CELL(abcABC):   13.38377    13.38377    13.38377    90.00000    90.00000    90.00000  Step:           6  Bead:      10 positions{angstrom}  cell{angstrom}
       O  5.52158e-01 -9.56153e-01 -1.94049e-01
       O  2.94102e+00 -8.68756e-01 -4.91345e-02
       H  1.72326e-01 -1.34249e+00 -9.97176e-01
       H  1.74616e+00 -9.08493e-01 -1.18274e-01
       H  3.31558e+00 -1.43627e-01  4.72554e-01
       H  3.40087e+00 -1.68902e+00  1.86292e-01
       H  7.74630e-02 -1.36864e-01  7.18960e-03
7
# CELL(abcABC):   13.38377    13.38377    13.38377    90.00000    90.00000    90.00000  Step:           7  Bead:      10 positions{angstrom}  cell{angstrom}
       O  5.51585e-01 -9.56705e-01 -1.92834e-01
       O  2.94191e+00 -8.68433e-01 -4.99856e-02
       H  1.73497e-01 -1.34173e+00 -9.97274e-01
       H  1.74625e+00 -9.09194e-01 -1.18762e-01
       H  3.31689e+00 -1.43020e-01  4.70294e-01
       H  3.39913e+00 -1.68817e+00  1.89225e-01
       H  7.63014e-02 -1.37008e-01  6.86034e-03
7
# CELL(abcABC):   13.38377    13.38377    13.38377    90.00000    90.00000    90.00000  Step:           8  Bead:      10 positions{angstrom}  cell{angstrom}
       O  5.51323e-01 -9.56977e-01 -1.92151e-01
       O  2.94222e+00 -8.68681e-01 -5.07690e-02
       H  1.74194e-01 -1.34132e+00 -9.97362e-01
       H  1.74629e+00 -9.09490e-01 -1.18977e-01
       H  3.31815e+00 -1.40315e-01  4.65359e-01
       H  3.39766e+00 -1.68773e+00  1.94979e-01
       H  7.56728e-02 -1.37156e-01  6.70683e-03
7
# CELL(abcABC):   13.38377    13.38377    13.38377    90.00000    90.00000    90.00000  Step:           9  Bead:      10 positions{angstrom}  cell{angstrom}
       O  5.51064e-01 -9.57271e-01 -1.91370e-01
       O  2.94247e+00 -8.68709e-01 -5.15656e-02
       H  1.75024e-01 -1.34088e+00 -9.97505e-01
       H  1.74635e+00 -9.09613e-01 -1.19128e-01
       H  3.31929e+00 -1.38672e-01  4.61659e-01
       H  3.39627e+00 -1.68723e+00  1.99332e-01
       H  7.50327e-02 -1.37427e-01  6.54500e-03
7
# CELL(abcABC):   13.38377    13.38377    13.38377    90.00000    90.00000    90.00000  Step:          10  Bead:      10 positions{angstrom}  cell{angstrom}
       O  5.50831e-01 -9.57617e-01 -1.90666e-01
       O  2.94264e+00 -8.68202e-01 -5.20965e-02
       H  1.75803e-01 -1.34046e+00 -9.97638e-01
       H  1.74639e+00 -9.09583e-01 -1.19216e-01
       H  3.31971e+00 -1.40182e-01  4.63006e-01
       H  3.39565e+00 -1.68685e+00  1.98113e-01
       H  7.44796e-02 -1.37689e-01  6.38110e-03
