7
# CELL(abcABC):   13.38377    13.38377    13.38377    90.00000    90.00000    90.00000  Step:           0  Bead:       4 positions{angstrom}  cell{angstrom}
       O  5.54810e-01 -9.55480e-01 -1.98800e-01
       O  2.92930e+00 -8.12750e-01  2.23900e-02
       H  1.68750e-01 -1.34489e+00 -9.96690e-01
       H  1.74588e+00 -9.04260e-01 -1.15740e-01
       H  3.25333e+00 -8.64570e-01  9.33680e-01
       H  3.49847e+00 -1.35580e+00 -5.41950e-01
       H  8.14400e-02 -1.36290e-01  8.53000e-03
7
# CELL(abcABC):   13.38377    13.38377    13.38377    90.00000    90.00000    90.00000  Step:           1  Bead:       4 positions{angstrom}  cell{angstrom}
       O  5.54228e-01 -9.55573e-01 -1.98045e-01
       O  2.92974e+00 -8.11986e-01  2.26724e-02
       H  1.68777e-01 -1.34473e+00 -9.96705e-01
       H  1.74592e+00 -9.04468e-01 -1.16128e-01
       H  3.25348e+00 -8.64857e-01  9.33409e-01
       H  3.49841e+00 -1.35601e+00 -5.41699e-01
       H  8.14035e-02 -1.36365e-01  7.98444e-03
7
# CELL(abcABC):   13.38377    13.38377    13.38377    90.00000    90.00000    90.00000  Step:           2  Bead:       4 positions{angstrom}  cell{angstrom}
       O  5.53863e-01 -9.55818e-01 -1.97558e-01
       O  2.93004e+00 -8.11428e-01  2.26785e-02
       H  1.68821e-01 -1.34459e+00 -9.96652e-01
       H  1.74595e+00 -9.04601e-01 -1.16388e-01
       H  3.25365e+00 -8.65108e-01  9.33345e-01
       H  3.49833e+00 -1.35612e+00 -5.41468e-01
       H  8.13121e-02 -1.36295e-01  7.58224e-03
7
# CELL(abcABC):   13.38377    13.38377    13.38377    90.00000    90.00000    90.00000  Step:           3  Bead:       4 positions{angstrom}  cell{angstrom}
       O  5.53564e-01 -9.56269e-01 -1.97100e-01
       O  2.93029e+00 -8.10827e-01  2.24622e-02
       H  1.68888e-01 -1.34440e+00 -9.96532e-01
       H  1.74598e+00 -9.04710e-01 -1.16621e-01
       H  3.25387e+00 -8.65388e-01  9.33414e-01
       H  3.49821e+00 -1.35624e+00 -5.41156e-01
       H  8.11541e-02 -1.36085e-01  7.14145e-03
7
# CELL(abcABC):   13.38377    13.38377    13.38377    90.00000    90.00000    90.00000  Step:           4  Bead:       4 positions{angstrom}  cell{angstrom}
       O  5.53388e-01 -9.56519e-01 -1.96775e-01
       O  2.93000e+00 -8.09552e-01  2.56153e-02
       H  1.68888e-01 -1.34432e+00 -9.96453e-01
       H  1.74599e+00 -9.04733e-01 -1.16744e-01
       H  3.25351e+00 -8.96479e-01  9.37367e-01
       H  3.50056e+00 -1.33400e+00 -5.59640e-01
       H  8.11293e-02 -1.35966e-01  6.80803e-03
7
# CELL(abcABC):   13.38377    13.38377    13.38377    90.00000    90.00000    90.00000  Step:           5  Bead:       4 positions{angstrom}  cell{angstrom}
       O  5.52974e-01 -9.56866e-01 -1.96149e-01
       O  2.93129e+00 -8.09553e-01  2.59492e-02
       H  1.68938e-01 -1.34417e+00 -9.96367e-01
       H  1.74608e+00 -9.04820e-01 -1.16966e-01
       H  3.25335e+00 -8.96030e-01  9.35784e-01
       H  3.49972e+00 -1.33403e+00 -5.57950e-01
       H  8.10637e-02 -1.35861e-01  6.24191e-03
7
# CELL(abcABC):   13.38377    13.38377    13.38377    90.00000    90.00000    90.00000  Step:           6  Bead:       4 positions{angstrom}  cell{angstrom}
       O  5.52751e-01 -9.57166e-01 -1.95681e-01
       O  2.93175e+00 -8.09183e-01  2.69310e-02
       H  1.68971e-01 -1.34407e+00 -9.96276e-01
       H  1.74617e+00 -9.04842e-01 -1.17096e-01
       H  3.25324e+00 -9.04246e-01  9.35624e-01
       H  3.49988e+00 -1.32791e+00 -5.61663e-01
       H  8.10382e-02 -1.35740e-01  5.78492e-03
7
# CELL(abcABC):   13.38377    13.38377    13.38377    90.00000    90.00000    90.00000  Step:           7  Bead:       4 positions{angstrom}  cell{angstrom}
       O  5.52492e-01 -9.57711e-01 -1.94886e-01
       O  2.93173e+00 -8.08071e-01  2.88804e-02
       H  1.69040e-01 -1.34393e+00 -9.96077e-01
       H  1.74633e+00 -9.04817e-01 -1.17252e-01
       H  3.25321e+00 -9.23858e-01  9.36459e-01
       H  3.50088e+00 -1.31375e+00 -5.71463e-01
       H  8.10423e-02 -1.35497e-01  4.95927e-03
7
# CELL(abcABC):   13.38377    13.38377    13.38377    90.00000    90.00000    90.00000  Step:           8  Bead:       4 positions{angstrom}  cell{angstrom}
       O  5.52335e-01 -9.57995e-01 -1.94443e-01
       O  2.93177e+00 -8.07605e-01  2.94675e-02
       H  1.69110e-01 -1.34385e+00 -9.95945e-01
       H  1.74644e+00 -9.04787e-01 -1.17307e-01
       H  3.25323e+00 -9.29789e-01  9.36261e-01
       H  3.50103e+00 -1.30952e+00 -5.73889e-01
       H  8.10755e-02 -1.35387e-01  4.47674e-03
7
# CELL(abcABC):   13.38377    13.38377    13.38377    90.00000    90.00000    90.00000  Step:           9  Bead:       4 positions{angstrom}  cell{angstrom}
       O  5.52145e-01 -9.58276e-01 -1.93967e-01
       O  2.93193e+00 -8.07287e-01  2.98260e-02
       H  1.69226e-01 -1.34380e+00 -9.95758e-01
       H  1.74659e+00 -9.04717e-01 -1.17301e-01
       H  3.25322e+00 -9.32717e-01  9.35275e-01
       H  3.50080e+00 -1.30740e+00 -5.74183e-01
       H  8.11781e-02 -1.35290e-01  3.90549e-03
7
# CELL(abcABC):   13.38377    13.38377    13.38377    90.00000    90.00000    90.00000  Step:          10  Bead:       4 positions{angstrom}  cell{angstrom}
       O  5.52021e-01 -9.58531e-01 -1.93546e-01
       O  2.93180e+00 -8.06867e-01  3.01528e-02
       H  1.69342e-01 -1.34378e+00 -9.95570e-01
       H  1.74672e+00 -9.04626e-01 -1.17249e-01
       H  3.25328e+00 -9.36441e-01  9.34587e-01
       H  3.50078e+00 -1.30479e+00 -5.75077e-01
       H  8.13027e-02 -1.35180e-01  3.37127e-03
