7
# CELL(abcABC):   13.38377    13.38377    13.38377    90.00000    90.00000    90.00000  Step:           0  Bead:       9 positions{angstrom}  cell{angstrom}
       O  5.54810e-01 -9.55480e-01 -1.98800e-01
       O  2.93743e+00 -8.56560e-01 -3.91400e-02
       H  1.68750e-01 -1.34489e+00 -9.96690e-01
       H  1.74588e+00 -9.04260e-01 -1.15740e-01
       H  3.29426e+00 -2.29310e-01  6.06890e-01
       H  3.42424e+00 -1.69020e+00  3.43700e-02
       H  8.14400e-02 -1.36290e-01  8.53000e-03
7
# CELL(abcABC):   13.38377    13.38377    13.38377    90.00000    90.00000    90.00000  Step:           1  Bead:       9 positions{angstrom}  cell{angstrom}
       O  5.53963e-01 -9.55148e-01 -1.97515e-01
       O  2.93813e+00 -8.55230e-01 -3.93547e-02
       H  1.69222e-01 -1.34452e+00 -9.96969e-01
       H  1.74596e+00 -9.05214e-01 -1.16404e-01
       H  3.29483e+00 -2.29897e-01  6.06848e-01
       H  3.42376e+00 -1.69031e+00  3.47340e-02
       H  8.09470e-02 -1.36705e-01  8.07064e-03
7
# CELL(abcABC):   13.38377    13.38377    13.38377    90.00000    90.00000    90.00000  Step:           2  Bead:       9 positions{angstrom}  cell{angstrom}
       O  5.53449e-01 -9.55300e-01 -1.96769e-01
       O  2.93859e+00 -8.54613e-01 -3.97655e-02
       H  1.69659e-01 -1.34415e+00 -9.97022e-01
       H  1.74601e+00 -9.05856e-01 -1.16861e-01
       H  3.29538e+00 -2.30154e-01  6.07036e-01
       H  3.42331e+00 -1.69023e+00  3.50043e-02
       H  8.04176e-02 -1.36755e-01  7.77901e-03
7
# CELL(abcABC):   13.38377    13.38377    13.38377    90.00000    90.00000    90.00000  Step:           3  Bead:       9 positions{angstrom}  cell{angstrom}
       O  5.53050e-01 -9.55889e-01 -1.96165e-01
       O  2.93900e+00 -8.54324e-01 -4.04923e-02
       H  1.70216e-01 -1.34364e+00 -9.96939e-01
       H  1.74605e+00 -9.06431e-01 -1.17289e-01
       H  3.29609e+00 -2.30271e-01  6.07482e-01
       H  3.42272e+00 -1.68999e+00  3.52795e-02
       H  7.96828e-02 -1.36548e-01  7.51225e-03
7
# CELL(abcABC):   13.38377    13.38377    13.38377    90.00000    90.00000    90.00000  Step:           4  Bead:       9 positions{angstrom}  cell{angstrom}
       O  5.52722e-01 -9.56177e-01 -1.95582e-01
       O  2.93930e+00 -8.53924e-01 -4.09671e-02
       H  1.70614e-01 -1.34330e+00 -9.96968e-01
       H  1.74609e+00 -9.06843e-01 -1.17600e-01
       H  3.29658e+00 -2.30447e-01  6.07703e-01
       H  3.42231e+00 -1.68991e+00  3.55157e-02
       H  7.92015e-02 -1.36526e-01  7.27728e-03
7
# CELL(abcABC):   13.38377    13.38377    13.38377    90.00000    90.00000    90.00000  Step:           5  Bead:       9 positions{angstrom}  cell{angstrom}
       O  5.52193e-01 -9.56474e-01 -1.94585e-01
       O  2.93977e+00 -8.53153e-01 -4.16186e-02
       H  1.71211e-01 -1.34281e+00 -9.97089e-01
       H  1.74613e+00 -9.07417e-01 -1.18043e-01
       H  3.29727e+00 -2.30829e-01  6.07944e-01
       H  3.42170e+00 -1.68985e+00  3.58712e-02
       H  7.85478e-02 -1.36633e-01  6.88827e-03
7
# CELL(abcABC):   13.38377    13.38377    13.38377    90.00000    90.00000    90.00000  Step:           6  Bead:       9 positions{angstrom}  cell{angstrom}
       O  5.51802e-01 -9.56790e-01 -1.93829e-01
       O  2.94021e+00 -8.53374e-01 -4.27307e-02
       H  1.71762e-01 -1.34238e+00 -9.97158e-01
       H  1.74615e+00 -9.07850e-01 -1.18366e-01
       H  3.29865e+00 -2.25382e-01  6.02010e-01
       H  3.42013e+00 -1.69113e+00  4.38797e-02
       H  7.79697e-02 -1.36696e-01  6.60487e-03
7
# CELL(abcABC):   13.38377    13.38377    13.38377    90.00000    90.00000    90.00000  Step:           7  Bead:       9 positions{angstrom}  cell{angstrom}
       O  5.51124e-01 -9.57486e-01 -1.92536e-01
       O  2.94114e+00 -8.52856e-01 -4.37901e-02
       H  1.72762e-01 -1.34160e+00 -9.97248e-01
       H  1.74621e+00 -9.08431e-01 -1.18857e-01
       H  3.29984e+00 -2.24088e-01  5.99910e-01
       H  3.41857e+00 -1.69110e+00  4.72140e-02
       H  7.69780e-02 -1.36793e-01  6.08015e-03
7
# CELL(abcABC):   13.38377    13.38377    13.38377    90.00000    90.00000    90.00000  Step:           8  Bead:       9 positions{angstrom}  cell{angstrom}
       O  5.50785e-01 -9.57855e-01 -1.91805e-01
       O  2.94160e+00 -8.52653e-01 -4.44419e-02
       H  1.73349e-01 -1.34117e+00 -9.97327e-01
       H  1.74624e+00 -9.08658e-01 -1.19072e-01
       H  3.30058e+00 -2.22829e-01  5.98013e-01
       H  3.41757e+00 -1.69120e+00  4.99159e-02
       H  7.64582e-02 -1.36904e-01  5.79707e-03
7
# CELL(abcABC):   13.38377    13.38377    13.38377    90.00000    90.00000    90.00000  Step:           9  Bead:       9 positions{angstrom}  cell{angstrom}
       O  5.50463e-01 -9.58277e-01 -1.90969e-01
       O  2.94187e+00 -8.51900e-01 -4.49556e-02
       H  1.74025e-01 -1.34072e+00 -9.97453e-01
       H  1.74627e+00 -9.08703e-01 -1.19209e-01
       H  3.30089e+00 -2.25041e-01  5.99794e-01
       H  3.41713e+00 -1.69060e+00  4.80978e-02
       H  7.59701e-02 -1.37103e-01  5.46048e-03
7
# CELL(abcABC):   13.38377    13.38377    13.38377    90.00000    90.00000    90.00000  Step:          10  Bead:       9 positions{angstrom}  cell{angstrom}
       O  5.50206e-01 -9.58677e-01 -1.90227e-01
       O  2.94205e+00 -8.51736e-01 -4.58725e-02
       H  1.74732e-01 -1.34031e+00 -9.97573e-01
       H  1.74628e+00 -9.08682e-01 -1.19283e-01
       H  3.30175e+00 -2.23295e-01  5.97484e-01
       H  3.41605e+00 -1.69098e+00  5.14328e-02
       H  7.54983e-02 -1.37317e-01  5.19559e-03
