7
# CELL(abcABC):   13.38377    13.38377    13.38377    90.00000    90.00000    90.00000  Step:           0  Bead:       7 forces{atomic_unit}  cell{angstrom}
       O -1.69294e-03  9.88422e-05  2.19461e-03
       O  1.38594e-03  2.31675e-03  2.19984e-05
       H  5.21536e-04  6.74721e-04 -3.20338e-04
       H  1.39210e-04 -1.16345e-03 -1.17406e-03
       H  7.67893e-04 -1.10387e-03 -2.66022e-04
       H -5.54306e-04 -2.92607e-04  6.64625e-04
       H -5.68605e-04 -5.29468e-04 -1.12102e-03
7
# CELL(abcABC):   13.38377    13.38377    13.38377    90.00000    90.00000    90.00000  Step:           1  Bead:       7 forces{atomic_unit}  cell{angstrom}
       O -1.04329e-03 -1.02981e-03  1.39153e-03
       O  9.82061e-04  1.28941e-03 -1.04875e-03
       H  6.32363e-04  8.30536e-04  9.53520e-05
       H  9.66466e-05 -8.26986e-04 -8.74948e-04
       H  1.00082e-03 -6.79435e-04  5.66578e-04
       H -7.27738e-04  1.11103e-04  7.36040e-04
       H -9.43409e-04  3.03574e-04 -8.66235e-04
7
# CELL(abcABC):   13.38377    13.38377    13.38377    90.00000    90.00000    90.00000  Step:           2  Bead:       7 forces{atomic_unit}  cell{angstrom}
       O -7.86513e-04 -1.19883e-03  1.20850e-03
       O  7.69789e-04  1.06008e-03 -1.22544e-03
       H  6.14536e-04  8.03162e-04  1.30346e-04
       H  7.39021e-05 -6.47036e-04 -7.09680e-04
       H  9.77347e-04 -5.84895e-04  6.83259e-04
       H -7.07125e-04  1.37872e-04  7.04823e-04
       H -9.42829e-04  4.30130e-04 -7.91997e-04
7
# CELL(abcABC):   13.38377    13.38377    13.38377    90.00000    90.00000    90.00000  Step:           3  Bead:       7 forces{atomic_unit}  cell{angstrom}
       O -7.93680e-04 -6.81794e-04  1.41348e-03
       O  6.95287e-04  1.34542e-03 -7.53383e-04
       H  5.08861e-04  6.37493e-04 -8.53547e-05
       H  5.78453e-05 -5.34251e-04 -6.02340e-04
       H  7.34119e-04 -7.17206e-04  2.66552e-04
       H -5.59254e-04 -8.30681e-05  5.88678e-04
       H -6.44292e-04  3.68530e-05 -8.28439e-04
7
# CELL(abcABC):   13.38377    13.38377    13.38377    90.00000    90.00000    90.00000  Step:           4  Bead:       7 forces{atomic_unit}  cell{angstrom}
       O -7.39422e-04 -5.91773e-04  1.35105e-03
       O  6.41207e-04  1.29413e-03 -6.66306e-04
       H  4.93850e-04  5.84828e-04 -9.54387e-05
       H  4.22304e-05 -4.24470e-04 -4.98731e-04
       H  6.37233e-04 -7.19143e-04  1.71298e-04
       H -5.37808e-04 -9.95868e-05  5.40571e-04
       H -5.37707e-04 -4.52104e-05 -8.00668e-04
7
# CELL(abcABC):   13.38377    13.38377    13.38377    90.00000    90.00000    90.00000  Step:           5  Bead:       7 forces{atomic_unit}  cell{angstrom}
       O -5.81439e-04 -7.29051e-04  1.07563e-03
       O  5.40898e-04  9.89272e-04 -7.83849e-04
       H  5.20134e-04  5.64283e-04  7.91545e-06
       H  1.93381e-05 -2.40685e-04 -3.29304e-04
       H  5.69386e-04 -6.24040e-04  2.36311e-04
       H -5.76520e-04 -3.15765e-06  4.99961e-04
       H -4.93611e-04  4.21679e-05 -7.06770e-04
7
# CELL(abcABC):   13.38377    13.38377    13.38377    90.00000    90.00000    90.00000  Step:           6  Bead:       7 forces{atomic_unit}  cell{angstrom}
       O -4.86808e-04 -6.94362e-04  9.55130e-04
       O  4.61456e-04  8.72021e-04 -7.49448e-04
       H  5.14358e-04  5.06324e-04  1.86290e-05
       H  3.50298e-06 -1.13749e-04 -2.10107e-04
       H  4.80661e-04 -5.85828e-04  1.94466e-04
       H -5.65372e-04 -3.78009e-07  4.46119e-04
       H -4.08404e-04  1.74794e-05 -6.53647e-04
7
# CELL(abcABC):   13.38377    13.38377    13.38377    90.00000    90.00000    90.00000  Step:           7  Bead:       7 forces{atomic_unit}  cell{angstrom}
       O -4.04027e-04 -4.95575e-04  8.26392e-04
       O  1.32473e-03  3.34111e-04  3.16486e-04
       H  4.61900e-04  3.59087e-04 -2.33669e-05
       H  6.12289e-05  9.29703e-05 -2.30557e-05
       H -1.18020e-04 -1.27621e-03 -1.29736e-03
       H -1.12949e-03  1.08962e-03  7.83486e-04
       H -1.98162e-04 -1.04090e-04 -5.81656e-04
7
# CELL(abcABC):   13.38377    13.38377    13.38377    90.00000    90.00000    90.00000  Step:           8  Bead:       7 forces{atomic_unit}  cell{angstrom}
       O -2.32971e-04 -4.43237e-04  7.49939e-04
       O  3.12059e-04  6.19617e-04 -3.24025e-04
       H  4.61695e-04  2.93940e-04 -4.39485e-05
       H  1.70999e-05  1.86255e-04  6.46992e-05
       H  1.65542e-04 -7.80319e-04 -3.76505e-04
       H -5.92618e-04  2.41707e-04  4.48779e-04
       H -1.33473e-04 -1.18146e-04 -5.20630e-04
7
# CELL(abcABC):   13.38377    13.38377    13.38377    90.00000    90.00000    90.00000  Step:           9  Bead:       7 forces{atomic_unit}  cell{angstrom}
       O -1.41122e-04 -4.40369e-04  5.94142e-04
       O  2.71598e-05  5.18995e-04 -5.06837e-04
       H  4.82331e-04  2.39228e-04 -6.61373e-06
       H  4.49347e-06  2.69212e-04  1.46936e-04
       H  2.05679e-04 -6.14570e-04 -1.39337e-04
       H -4.94151e-04  1.15305e-04  3.54402e-04
       H -8.48559e-05 -9.04024e-05 -4.44049e-04
7
# CELL(abcABC):   13.38377    13.38377    13.38377    90.00000    90.00000    90.00000  Step:          10  Bead:       7 forces{atomic_unit}  cell{angstrom}
       O -9.63041e-05 -3.88003e-04  4.85697e-04
       O  3.83181e-05  3.85347e-04 -4.06246e-04
       H  4.88947e-04  1.75594e-04  6.27693e-06
       H  6.83258e-06  3.24457e-04  2.07986e-04
       H  1.28404e-04 -6.24782e-04 -2.52810e-04
       H -5.38550e-04  2.15540e-04  3.42078e-04
       H -2.87798e-05 -9.12706e-05 -3.82227e-04
