7
# CELL(abcABC):   13.38377    13.38377    13.38377    90.00000    90.00000    90.00000  Step:           0  Bead:      13 positions{angstrom}  cell{angstrom}
       O  5.54810e-01 -9.55480e-01 -1.98800e-01
       O  2.93894e+00 -9.17150e-01 -4.94700e-02
       H  1.68750e-01 -1.34489e+00 -9.96690e-01
       H  1.74588e+00 -9.04260e-01 -1.15740e-01
       H  3.36514e+00 -5.42400e-02  5.94700e-02
       H  3.35618e+00 -1.54903e+00  5.53820e-01
       H  8.14400e-02 -1.36290e-01  8.53000e-03
7
# CELL(abcABC):   13.38377    13.38377    13.38377    90.00000    90.00000    90.00000  Step:           1  Bead:      13 positions{angstrom}  cell{angstrom}
       O  5.54461e-01 -9.54395e-01 -1.97569e-01
       O  2.93920e+00 -9.15706e-01 -5.01301e-02
       H  1.69440e-01 -1.34484e+00 -9.97070e-01
       H  1.74592e+00 -9.05676e-01 -1.16117e-01
       H  3.36583e+00 -5.47399e-02  5.95582e-02
       H  3.35553e+00 -1.54923e+00  5.54064e-01
       H  8.07589e-02 -1.36823e-01  8.41072e-03
7
# CELL(abcABC):   13.38377    13.38377    13.38377    90.00000    90.00000    90.00000  Step:           2  Bead:      13 positions{angstrom}  cell{angstrom}
       O  5.54294e-01 -9.54061e-01 -1.97027e-01
       O  2.93930e+00 -9.19137e-01 -5.01616e-02
       H  1.70115e-01 -1.34468e+00 -9.97069e-01
       H  1.74595e+00 -9.06660e-01 -1.16356e-01
       H  3.37130e+00 -5.30916e-02  2.29654e-02
       H  3.35095e+00 -1.53176e+00  5.83831e-01
       H  8.00435e-02 -1.36897e-01  8.42450e-03
7
# CELL(abcABC):   13.38377    13.38377    13.38377    90.00000    90.00000    90.00000  Step:           3  Bead:      13 positions{angstrom}  cell{angstrom}
       O  5.54104e-01 -9.54279e-01 -1.96813e-01
       O  2.94049e+00 -9.18981e-01 -4.94751e-02
       H  1.71009e-01 -1.34433e+00 -9.96775e-01
       H  1.74606e+00 -9.07556e-01 -1.16608e-01
       H  3.37184e+00 -5.42303e-02  2.15983e-02
       H  3.34942e+00 -1.52968e+00  5.83913e-01
       H  7.90595e-02 -1.36658e-01  8.51978e-03
7
# CELL(abcABC):   13.38377    13.38377    13.38377    90.00000    90.00000    90.00000  Step:           4  Bead:      13 positions{angstrom}  cell{angstrom}
       O  5.54016e-01 -9.54226e-01 -1.96455e-01
       O  2.94092e+00 -9.18698e-01 -4.93373e-02
       H  1.71636e-01 -1.34415e+00 -9.96703e-01
       H  1.74616e+00 -9.08207e-01 -1.16796e-01
       H  3.37232e+00 -5.49975e-02  2.10919e-02
       H  3.34854e+00 -1.52858e+00  5.83885e-01
       H  7.83974e-02 -1.36635e-01  8.56099e-03
7
# CELL(abcABC):   13.38377    13.38377    13.38377    90.00000    90.00000    90.00000  Step:           5  Bead:      13 positions{angstrom}  cell{angstrom}
       O  5.53944e-01 -9.53933e-01 -1.95741e-01
       O  2.94080e+00 -9.18957e-01 -4.96765e-02
       H  1.72564e-01 -1.34394e+00 -9.96724e-01
       H  1.74630e+00 -9.09144e-01 -1.17066e-01
       H  3.37420e+00 -5.55022e-02  1.39256e-02
       H  3.34688e+00 -1.52427e+00  5.89553e-01
       H  7.74755e-02 -1.36768e-01  8.60183e-03
7
# CELL(abcABC):   13.38377    13.38377    13.38377    90.00000    90.00000    90.00000  Step:           6  Bead:      13 positions{angstrom}  cell{angstrom}
       O  5.53862e-01 -9.53815e-01 -1.95247e-01
       O  2.94074e+00 -9.19100e-01 -4.99361e-02
       H  1.73373e-01 -1.34373e+00 -9.96671e-01
       H  1.74642e+00 -9.09812e-01 -1.17270e-01
       H  3.37552e+00 -5.59471e-02  9.80738e-03
       H  3.34565e+00 -1.52153e+00  5.92746e-01
       H  7.66988e-02 -1.36846e-01  8.65412e-03
7
# CELL(abcABC):   13.38377    13.38377    13.38377    90.00000    90.00000    90.00000  Step:           7  Bead:      13 positions{angstrom}  cell{angstrom}
       O  5.53668e-01 -9.53738e-01 -1.94447e-01
       O  2.94072e+00 -9.19079e-01 -5.03885e-02
       H  1.74881e-01 -1.34332e+00 -9.96521e-01
       H  1.74662e+00 -9.10806e-01 -1.17598e-01
       H  3.37740e+00 -5.69071e-02  6.09138e-03
       H  3.34376e+00 -1.51834e+00  5.95455e-01
       H  7.53025e-02 -1.36990e-01  8.76958e-03
7
# CELL(abcABC):   13.38377    13.38377    13.38377    90.00000    90.00000    90.00000  Step:           8  Bead:      13 positions{angstrom}  cell{angstrom}
       O  5.53554e-01 -9.53683e-01 -1.93970e-01
       O  2.94063e+00 -9.19083e-01 -5.07505e-02
       H  1.75728e-01 -1.34312e+00 -9.96476e-01
       H  1.74672e+00 -9.11215e-01 -1.17749e-01
       H  3.37847e+00 -5.74205e-02  4.06595e-03
       H  3.34275e+00 -1.51666e+00  5.97002e-01
       H  7.45530e-02 -1.37137e-01  8.83950e-03
7
# CELL(abcABC):   13.38377    13.38377    13.38377    90.00000    90.00000    90.00000  Step:           9  Bead:      13 positions{angstrom}  cell{angstrom}
       O  5.53426e-01 -9.53624e-01 -1.93381e-01
       O  2.94043e+00 -9.19133e-01 -5.13313e-02
       H  1.76695e-01 -1.34292e+00 -9.96494e-01
       H  1.74680e+00 -9.11427e-01 -1.17865e-01
       H  3.37972e+00 -5.79203e-02  1.77726e-03
       H  3.34165e+00 -1.51494e+00  5.98875e-01
       H  7.37391e-02 -1.37396e-01  8.93094e-03
7
# CELL(abcABC):   13.38377    13.38377    13.38377    90.00000    90.00000    90.00000  Step:          10  Bead:      13 positions{angstrom}  cell{angstrom}
       O  5.53298e-01 -9.53636e-01 -1.92853e-01
       O  2.94032e+00 -9.19114e-01 -5.18714e-02
       H  1.77617e-01 -1.34272e+00 -9.96512e-01
       H  1.74686e+00 -9.11476e-01 -1.17944e-01
       H  3.38073e+00 -5.84095e-02  7.14580e-04
       H  3.34069e+00 -1.51390e+00  5.99741e-01
       H  7.29744e-02 -1.37650e-01  9.03292e-03
