7
# CELL(abcABC):   13.38377    13.38377    13.38377    90.00000    90.00000    90.00000  Step:           0  Bead:       2 forces{atomic_unit}  cell{angstrom}
       O -5.04129e-04 -1.24317e-04  7.96884e-04
       O  3.19217e-04  6.86632e-04  5.39980e-04
       H -7.64032e-05  3.10195e-05  6.91657e-05
       H  4.39783e-05 -1.17868e-04 -3.97709e-04
       H  6.38479e-05 -5.27176e-04 -4.24473e-04
       H  5.50983e-05  3.04610e-05  8.74749e-05
       H  9.70672e-05  1.80961e-05 -6.71990e-04
7
# CELL(abcABC):   13.38377    13.38377    13.38377    90.00000    90.00000    90.00000  Step:           1  Bead:       2 forces{atomic_unit}  cell{angstrom}
       O -3.45064e-04 -4.27120e-04  5.23832e-04
       O  2.48421e-04  6.83956e-04  9.58494e-05
       H -1.58451e-05  8.40615e-05  2.20170e-04
       H  2.89504e-05 -7.57410e-05 -2.91385e-04
       H  1.31155e-04 -6.16471e-04 -1.59260e-04
       H -3.63769e-05  1.00715e-04  1.99762e-04
       H -1.12948e-05  2.51048e-04 -5.90067e-04
7
# CELL(abcABC):   13.38377    13.38377    13.38377    90.00000    90.00000    90.00000  Step:           2  Bead:       2 forces{atomic_unit}  cell{angstrom}
       O -1.63168e-04 -3.97993e-04  3.45017e-04
       O -3.37953e-04  8.47889e-04  5.00506e-06
       H -1.70658e-05  2.96325e-05  2.30129e-04
       H -1.99336e-05 -2.92758e-05 -1.83928e-04
       H  2.24853e-04 -7.46489e-04  4.09526e-04
       H  3.00496e-04  2.29946e-05 -3.41250e-04
       H  1.17382e-05  2.74498e-04 -4.65323e-04
7
# CELL(abcABC):   13.38377    13.38377    13.38377    90.00000    90.00000    90.00000  Step:           3  Bead:       2 forces{atomic_unit}  cell{angstrom}
       O -2.16006e-04 -2.42692e-04  4.06209e-04
       O -7.00864e-04  1.19845e-03  4.55941e-05
       H -3.82855e-05 -1.81885e-05  1.72224e-04
       H -1.11821e-04 -4.50640e-05 -1.73131e-04
       H  2.96927e-04 -9.83501e-04  1.19199e-03
       H  6.83973e-04 -7.14735e-05 -1.16132e-03
       H  8.58975e-05  1.61377e-04 -4.79669e-04
7
# CELL(abcABC):   13.38377    13.38377    13.38377    90.00000    90.00000    90.00000  Step:           4  Bead:       2 forces{atomic_unit}  cell{angstrom}
       O -2.69523e-04 -2.09103e-04  3.75924e-04
       O -6.44988e-05  8.05798e-04  1.50689e-04
       H -4.54349e-05 -3.62476e-05  1.68563e-04
       H -1.20880e-04 -4.16421e-05 -1.54013e-04
       H  4.62791e-05 -7.35763e-04  7.61139e-04
       H  3.47215e-04  7.82137e-05 -8.36299e-04
       H  1.08511e-04  1.36986e-04 -4.65674e-04
7
# CELL(abcABC):   13.38377    13.38377    13.38377    90.00000    90.00000    90.00000  Step:           5  Bead:       2 forces{atomic_unit}  cell{angstrom}
       O -2.93257e-04 -2.40988e-04  2.75129e-04
       O  1.43276e-03 -2.76309e-04  3.43297e-04
       H -4.98900e-05 -5.13765e-05  1.84691e-04
       H -6.47404e-05 -1.92486e-05 -1.02064e-04
       H -5.19937e-04 -6.03109e-06 -7.23001e-04
       H -6.00902e-04  4.21431e-04  4.37149e-04
       H  9.68242e-05  1.72989e-04 -4.18086e-04
7
# CELL(abcABC):   13.38377    13.38377    13.38377    90.00000    90.00000    90.00000  Step:           6  Bead:       2 forces{atomic_unit}  cell{angstrom}
       O -1.86449e-04 -2.18186e-04  2.69270e-04
       O  1.38520e-03 -4.03895e-04  3.05924e-04
       H -6.08651e-05 -8.28322e-05  1.56143e-04
       H -3.45608e-05  3.22586e-06 -5.71134e-05
       H -5.34062e-04  8.07916e-05 -9.27533e-04
       H -6.70921e-04  4.35568e-04  6.45871e-04
       H  1.00631e-04  1.83992e-04 -3.92902e-04
7
# CELL(abcABC):   13.38377    13.38377    13.38377    90.00000    90.00000    90.00000  Step:           7  Bead:       2 forces{atomic_unit}  cell{angstrom}
       O  4.42910e-05 -1.32822e-04  2.81446e-04
       O  2.13007e-04  5.45270e-05  8.97586e-05
       H -5.97367e-05 -1.34058e-04  1.11419e-04
       H  4.30873e-06  4.79986e-05  1.89772e-05
       H -1.66953e-04 -2.50419e-04 -3.87112e-04
       H -1.69400e-04  2.51666e-04  2.44135e-04
       H  1.34068e-04  1.66266e-04 -3.57801e-04
7
# CELL(abcABC):   13.38377    13.38377    13.38377    90.00000    90.00000    90.00000  Step:           8  Bead:       2 forces{atomic_unit}  cell{angstrom}
       O  9.05061e-05 -1.01339e-04  2.39045e-04
       O -1.44465e-04  1.59930e-04  2.85013e-05
       H -3.54717e-05 -1.42784e-04  1.32343e-04
       H  2.37435e-05  6.63235e-05  5.09246e-05
       H -6.08182e-05 -3.30104e-04 -2.78240e-04
       H -3.14586e-05  2.00444e-04  1.67468e-04
       H  1.58380e-04  1.48070e-04 -3.39280e-04
7
# CELL(abcABC):   13.38377    13.38377    13.38377    90.00000    90.00000    90.00000  Step:           9  Bead:       2 forces{atomic_unit}  cell{angstrom}
       O  3.57304e-05 -8.58236e-05  1.48275e-04
       O -4.62549e-05  3.17613e-05  4.95248e-05
       H  7.10259e-06 -1.34686e-04  1.94188e-04
       H  4.05166e-05  7.12674e-05  6.49209e-05
       H -1.07146e-04 -2.34189e-04 -4.48466e-04
       H -1.13403e-04  2.24590e-04  3.09140e-04
       H  1.81734e-04  1.26826e-04 -3.15428e-04
7
# CELL(abcABC):   13.38377    13.38377    13.38377    90.00000    90.00000    90.00000  Step:          10  Bead:       2 forces{atomic_unit}  cell{angstrom}
       O  1.05246e-05 -5.74275e-05  1.00457e-04
       O -1.27733e-04  4.67281e-05  4.31953e-05
       H  3.35177e-05 -1.39299e-04  2.21155e-04
       H  4.29424e-05  7.16426e-05  7.60835e-05
       H -8.53106e-05 -2.48399e-04 -4.06442e-04
       H -7.06962e-05  2.14639e-04  2.65157e-04
       H  1.98436e-04  1.11022e-04 -2.97288e-04
