7
# CELL(abcABC):   13.38377    13.38377    13.38377    90.00000    90.00000    90.00000  Step:           0  Bead:       7 positions{angstrom}  cell{angstrom}
       O  5.54810e-01 -9.55480e-01 -1.98800e-01
       O  2.93479e+00 -8.32580e-01 -1.93400e-02
       H  1.68750e-01 -1.34489e+00 -9.96690e-01
       H  1.74588e+00 -9.04260e-01 -1.15740e-01
       H  3.26920e+00 -4.46410e-01  8.03570e-01
       H  3.45845e+00 -1.61927e+00 -2.29600e-01
       H  8.14400e-02 -1.36290e-01  8.53000e-03
7
# CELL(abcABC):   13.38377    13.38377    13.38377    90.00000    90.00000    90.00000  Step:           1  Bead:       7 positions{angstrom}  cell{angstrom}
       O  5.53914e-01 -9.55428e-01 -1.97639e-01
       O  2.93552e+00 -8.31355e-01 -1.93298e-02
       H  1.69026e-01 -1.34453e+00 -9.96860e-01
       H  1.74595e+00 -9.04876e-01 -1.16361e-01
       H  3.26961e+00 -4.46979e-01  8.03418e-01
       H  3.45815e+00 -1.61943e+00 -2.29232e-01
       H  8.11391e-02 -1.36570e-01  7.93678e-03
7
# CELL(abcABC):   13.38377    13.38377    13.38377    90.00000    90.00000    90.00000  Step:           2  Bead:       7 positions{angstrom}  cell{angstrom}
       O  5.53365e-01 -9.55702e-01 -1.96915e-01
       O  2.93601e+00 -8.30646e-01 -1.96247e-02
       H  1.69283e-01 -1.34420e+00 -9.96881e-01
       H  1.74600e+00 -9.05284e-01 -1.16785e-01
       H  3.27001e+00 -4.47301e-01  8.03509e-01
       H  3.45786e+00 -1.61946e+00 -2.28884e-01
       H  8.07878e-02 -1.36565e-01  7.52360e-03
7
# CELL(abcABC):   13.38377    13.38377    13.38377    90.00000    90.00000    90.00000  Step:           3  Bead:       7 positions{angstrom}  cell{angstrom}
       O  5.52931e-01 -9.56335e-01 -1.96264e-01
       O  2.93643e+00 -8.30074e-01 -2.02729e-02
       H  1.69612e-01 -1.34377e+00 -9.96811e-01
       H  1.74604e+00 -9.05640e-01 -1.17173e-01
       H  3.27053e+00 -4.47589e-01  8.03849e-01
       H  3.45748e+00 -1.61940e+00 -2.28476e-01
       H  8.02834e-02 -1.36340e-01  7.09853e-03
7
# CELL(abcABC):   13.38377    13.38377    13.38377    90.00000    90.00000    90.00000  Step:           4  Bead:       7 positions{angstrom}  cell{angstrom}
       O  5.52581e-01 -9.56691e-01 -1.95679e-01
       O  2.93675e+00 -8.29530e-01 -2.06563e-02
       H  1.69845e-01 -1.34347e+00 -9.96820e-01
       H  1.74607e+00 -9.05893e-01 -1.17454e-01
       H  3.27089e+00 -4.47854e-01  8.03995e-01
       H  3.45721e+00 -1.61941e+00 -2.28176e-01
       H  7.99657e-02 -1.36275e-01  6.74558e-03
7
# CELL(abcABC):   13.38377    13.38377    13.38377    90.00000    90.00000    90.00000  Step:           5  Bead:       7 positions{angstrom}  cell{angstrom}
       O  5.52022e-01 -9.57124e-01 -1.94712e-01
       O  2.93724e+00 -8.28605e-01 -2.11405e-02
       H  1.70199e-01 -1.34304e+00 -9.96879e-01
       H  1.74611e+00 -9.06242e-01 -1.17850e-01
       H  3.27137e+00 -4.48330e-01  8.04119e-01
       H  3.45682e+00 -1.61948e+00 -2.27749e-01
       H  7.95538e-02 -1.36286e-01  6.17519e-03
7
# CELL(abcABC):   13.38377    13.38377    13.38377    90.00000    90.00000    90.00000  Step:           6  Bead:       7 positions{angstrom}  cell{angstrom}
       O  5.51596e-01 -9.57550e-01 -1.93963e-01
       O  2.93762e+00 -8.27906e-01 -2.16057e-02
       H  1.70514e-01 -1.34267e+00 -9.96897e-01
       H  1.74613e+00 -9.06478e-01 -1.18133e-01
       H  3.27177e+00 -4.48700e-01  8.04239e-01
       H  3.45647e+00 -1.61952e+00 -2.27378e-01
       H  7.92115e-02 -1.36265e-01  5.71077e-03
7
# CELL(abcABC):   13.38377    13.38377    13.38377    90.00000    90.00000    90.00000  Step:           7  Bead:       7 positions{angstrom}  cell{angstrom}
       O  5.50885e-01 -9.58412e-01 -1.92691e-01
       O  2.93810e+00 -8.25350e-01 -2.11337e-02
       H  1.71047e-01 -1.34204e+00 -9.96882e-01
       H  1.74616e+00 -9.06722e-01 -1.18534e-01
       H  3.27104e+00 -4.63435e-01  8.15050e-01
       H  3.45785e+00 -1.61394e+00 -2.42128e-01
       H  7.86943e-02 -1.36192e-01  4.83287e-03
7
# CELL(abcABC):   13.38377    13.38377    13.38377    90.00000    90.00000    90.00000  Step:           8  Bead:       7 positions{angstrom}  cell{angstrom}
       O  5.50500e-01 -9.58843e-01 -1.91962e-01
       O  2.93878e+00 -8.25299e-01 -2.19034e-02
       H  1.71441e-01 -1.34168e+00 -9.96903e-01
       H  1.74619e+00 -9.06865e-01 -1.18719e-01
       H  3.27179e+00 -4.58863e-01  8.11016e-01
       H  3.45653e+00 -1.61578e+00 -2.36095e-01
       H  7.83728e-02 -1.36219e-01  4.38302e-03
7
# CELL(abcABC):   13.38377    13.38377    13.38377    90.00000    90.00000    90.00000  Step:           9  Bead:       7 positions{angstrom}  cell{angstrom}
       O  5.50150e-01 -9.59324e-01 -1.91149e-01
       O  2.93919e+00 -8.24470e-01 -2.21526e-02
       H  1.71869e-01 -1.34133e+00 -9.96933e-01
       H  1.74621e+00 -9.06850e-01 -1.18808e-01
       H  3.27192e+00 -4.60935e-01  8.11850e-01
       H  3.45617e+00 -1.61506e+00 -2.37160e-01
       H  7.81381e-02 -1.36279e-01  3.83509e-03
7
# CELL(abcABC):   13.38377    13.38377    13.38377    90.00000    90.00000    90.00000  Step:          10  Bead:       7 positions{angstrom}  cell{angstrom}
       O  5.49866e-01 -9.59798e-01 -1.90428e-01
       O  2.93944e+00 -8.23491e-01 -2.22119e-02
       H  1.72280e-01 -1.34102e+00 -9.96945e-01
       H  1.74623e+00 -9.06750e-01 -1.18826e-01
       H  3.27180e+00 -4.65204e-01  8.14394e-01
       H  3.45618e+00 -1.61346e+00 -2.40708e-01
       H  7.79682e-02 -1.36330e-01  3.31720e-03
