7
# CELL(abcABC):   13.38377    13.38377    13.38377    90.00000    90.00000    90.00000  Step:           0  Bead:      10 forces{atomic_unit}  cell{angstrom}
       O -1.41398e-03  9.69318e-04  2.45742e-03
       O  1.14786e-03  2.56773e-03 -5.98509e-04
       H  1.05402e-03  6.16156e-04 -6.11291e-04
       H  1.43309e-04 -2.10090e-03 -1.20021e-03
       H  1.20929e-03 -9.65441e-04 -1.83597e-04
       H -1.05838e-03 -2.03224e-04  8.23570e-04
       H -1.08252e-03 -8.84590e-04 -6.89144e-04
7
# CELL(abcABC):   13.38377    13.38377    13.38377    90.00000    90.00000    90.00000  Step:           1  Bead:      10 forces{atomic_unit}  cell{angstrom}
       O -8.43450e-04 -7.11978e-04  1.22424e-03
       O  8.12119e-04  5.67043e-04 -1.17740e-03
       H  1.27521e-03  9.40911e-04  1.32513e-04
       H  1.00933e-04 -1.54227e-03 -9.17497e-04
       H  1.54833e-03  1.54813e-05  5.03741e-04
       H -1.33433e-03  5.03881e-04  6.10386e-04
       H -1.55992e-03  2.26767e-04 -3.75410e-04
7
# CELL(abcABC):   13.38377    13.38377    13.38377    90.00000    90.00000    90.00000  Step:           2  Bead:      10 forces{atomic_unit}  cell{angstrom}
       O -6.31944e-04 -1.00092e-03  9.77802e-04
       O  6.46276e-04  1.87759e-04 -1.27334e-03
       H  1.24763e-03  9.40865e-04  2.11185e-04
       H  7.88773e-05 -1.23978e-03 -7.61267e-04
       H  1.51896e-03  1.71944e-04  5.84514e-04
       H -1.30798e-03  5.57192e-04  5.63635e-04
       H -1.54832e-03  3.84253e-04 -3.03973e-04
7
# CELL(abcABC):   13.38377    13.38377    13.38377    90.00000    90.00000    90.00000  Step:           3  Bead:      10 forces{atomic_unit}  cell{angstrom}
       O -6.66442e-04 -3.18032e-04  1.37748e-03
       O  5.98983e-04  9.10681e-04 -1.00412e-03
       H  1.03649e-03  7.06204e-04 -1.68379e-04
       H  6.14406e-05 -1.04240e-03 -6.53861e-04
       H  1.18432e-03 -2.58811e-04  2.11378e-04
       H -1.06694e-03  1.52939e-04  6.26757e-04
       H -1.15031e-03 -1.49406e-04 -3.89689e-04
7
# CELL(abcABC):   13.38377    13.38377    13.38377    90.00000    90.00000    90.00000  Step:           4  Bead:      10 forces{atomic_unit}  cell{angstrom}
       O -6.26495e-04 -2.41508e-04  1.34540e-03
       O  5.58701e-04  9.31752e-04 -9.33282e-04
       H  9.82679e-04  6.46624e-04 -2.10282e-04
       H  4.54691e-05 -8.52685e-04 -5.52561e-04
       H  1.06135e-03 -3.25529e-04  1.22022e-04
       H -1.00940e-03  9.00769e-05  6.08522e-04
       H -1.01376e-03 -2.50350e-04 -3.78868e-04
7
# CELL(abcABC):   13.38377    13.38377    13.38377    90.00000    90.00000    90.00000  Step:           5  Bead:      10 forces{atomic_unit}  cell{angstrom}
       O -5.20099e-04 -5.02631e-04  9.96354e-04
       O  1.32586e-03  4.18677e-04 -1.18449e-04
       H  1.00272e-03  6.51667e-04 -6.78824e-05
       H  9.44254e-05 -5.35192e-04 -3.85278e-04
       H  6.05932e-04 -1.24624e-03 -4.73784e-04
       H -1.52815e-03  1.33925e-03  3.20345e-04
       H -9.81952e-04 -1.26042e-04 -2.73917e-04
7
# CELL(abcABC):   13.38377    13.38377    13.38377    90.00000    90.00000    90.00000  Step:           6  Bead:      10 forces{atomic_unit}  cell{angstrom}
       O -3.67510e-04 -5.26406e-04  8.90776e-04
       O  6.56185e-04  3.12026e-04 -5.54117e-04
       H  9.59920e-04  5.99478e-04 -7.32541e-05
       H  7.13683e-05 -3.12980e-04 -2.72948e-04
       H  7.59447e-04 -7.68696e-04 -1.80707e-04
       H -1.20462e-03  8.37387e-04  4.24670e-04
       H -8.72221e-04 -1.42525e-04 -2.33278e-04
7
# CELL(abcABC):   13.38377    13.38377    13.38377    90.00000    90.00000    90.00000  Step:           7  Bead:      10 forces{atomic_unit}  cell{angstrom}
       O -2.02998e-04 -3.52030e-04  8.29564e-04
       O -1.23345e-04  4.02027e-04 -9.22540e-04
       H  8.58974e-04  4.58712e-04 -1.76058e-04
       H  4.46690e-05  2.33413e-05 -9.95527e-05
       H  8.06853e-04 -4.10114e-04  4.10552e-06
       H -7.70355e-04  1.91947e-04  5.50769e-04
       H -6.17028e-04 -3.13304e-04 -1.86313e-04
7
# CELL(abcABC):   13.38377    13.38377    13.38377    90.00000    90.00000    90.00000  Step:           8  Bead:      10 forces{atomic_unit}  cell{angstrom}
       O -1.70390e-04 -3.11762e-04  7.33014e-04
       O -1.66494e-05  3.55243e-04 -7.00544e-04
       H  8.28821e-04  4.03186e-04 -1.82973e-04
       H  4.81805e-05  1.93491e-04 -9.21005e-06
       H  6.34526e-04 -6.41326e-04 -1.80221e-04
       H -8.15028e-04  3.67805e-04  4.83263e-04
       H -5.08659e-04 -3.66332e-04 -1.46007e-04
7
# CELL(abcABC):   13.38377    13.38377    13.38377    90.00000    90.00000    90.00000  Step:           9  Bead:      10 forces{atomic_unit}  cell{angstrom}
       O -1.20467e-04 -3.66470e-04  5.64123e-04
       O -4.32721e-06  1.93523e-04 -6.17756e-04
       H  8.18264e-04  3.62668e-04 -1.44649e-04
       H  3.53708e-05  3.50218e-04  7.93079e-05
       H  5.50826e-04 -6.15431e-04 -2.21878e-04
       H -8.27580e-04  4.11193e-04  4.18729e-04
       H -4.52980e-04 -3.35949e-04 -7.94785e-05
7
# CELL(abcABC):   13.38377    13.38377    13.38377    90.00000    90.00000    90.00000  Step:          10  Bead:      10 forces{atomic_unit}  cell{angstrom}
       O -7.00510e-05 -3.57275e-04  4.68322e-04
       O -3.09225e-04  1.37932e-04 -8.51259e-04
       H  7.91637e-04  3.11051e-04 -1.48248e-04
       H -6.74447e-06  4.57013e-04  1.48117e-04
       H  6.19033e-04 -1.86860e-04 -3.61808e-05
       H -6.40820e-04 -2.84771e-05  4.50461e-04
       H -3.86257e-04 -3.36384e-04 -3.24718e-05
