7
# CELL(abcABC):   13.38377    13.38377    13.38377    90.00000    90.00000    90.00000  Step:           0  Bead:       5 positions{angstrom}  cell{angstrom}
       O  5.54810e-01 -9.55480e-01 -1.98800e-01
       O  2.93127e+00 -8.16860e-01  7.40000e-03
       H  1.68750e-01 -1.34489e+00 -9.96690e-01
       H  1.74588e+00 -9.04260e-01 -1.15740e-01
       H  3.25541e+00 -7.18230e-01  9.14770e-01
       H  3.48724e+00 -1.46159e+00 -4.53640e-01
       H  8.14400e-02 -1.36290e-01  8.53000e-03
7
# CELL(abcABC):   13.38377    13.38377    13.38377    90.00000    90.00000    90.00000  Step:           1  Bead:       5 positions{angstrom}  cell{angstrom}
       O  5.54084e-01 -9.55558e-01 -1.97887e-01
       O  2.93184e+00 -8.15908e-01  7.61579e-03
       H  1.68845e-01 -1.34465e+00 -9.96749e-01
       H  1.74594e+00 -9.04580e-01 -1.16218e-01
       H  3.25565e+00 -7.18638e-01  9.14513e-01
       H  3.48711e+00 -1.46179e+00 -4.53332e-01
       H  8.13279e-02 -1.36428e-01  7.93258e-03
7
# CELL(abcABC):   13.38377    13.38377    13.38377    90.00000    90.00000    90.00000  Step:           2  Bead:       5 positions{angstrom}  cell{angstrom}
       O  5.53634e-01 -9.55838e-01 -1.97300e-01
       O  2.93222e+00 -8.15255e-01  7.52672e-03
       H  1.68945e-01 -1.34444e+00 -9.96719e-01
       H  1.74597e+00 -9.04789e-01 -1.16540e-01
       H  3.25589e+00 -7.18929e-01  9.14488e-01
       H  3.48697e+00 -1.46190e+00 -4.53037e-01
       H  8.11590e-02 -1.36374e-01  7.49835e-03
7
# CELL(abcABC):   13.38377    13.38377    13.38377    90.00000    90.00000    90.00000  Step:           3  Bead:       5 positions{angstrom}  cell{angstrom}
       O  5.53269e-01 -9.56377e-01 -1.96750e-01
       O  2.93255e+00 -8.14595e-01  7.16159e-03
       H  1.69081e-01 -1.34416e+00 -9.96618e-01
       H  1.74600e+00 -9.04963e-01 -1.16830e-01
       H  3.25621e+00 -7.19264e-01  9.14642e-01
       H  3.48678e+00 -1.46197e+00 -4.52676e-01
       H  8.08951e-02 -1.36150e-01  7.03057e-03
7
# CELL(abcABC):   13.38377    13.38377    13.38377    90.00000    90.00000    90.00000  Step:           4  Bead:       5 positions{angstrom}  cell{angstrom}
       O  5.52979e-01 -9.56699e-01 -1.96269e-01
       O  2.93279e+00 -8.14050e-01  6.98052e-03
       H  1.69173e-01 -1.34397e+00 -9.96579e-01
       H  1.74602e+00 -9.05085e-01 -1.17038e-01
       H  3.25641e+00 -7.19512e-01  9.14670e-01
       H  3.48666e+00 -1.46207e+00 -4.52412e-01
       H  8.07445e-02 -1.36051e-01  6.64940e-03
7
# CELL(abcABC):   13.38377    13.38377    13.38377    90.00000    90.00000    90.00000  Step:           5  Bead:       5 positions{angstrom}  cell{angstrom}
       O  5.52568e-01 -9.57098e-01 -1.95554e-01
       O  2.93275e+00 -8.11923e-01  9.62300e-03
       H  1.69249e-01 -1.34376e+00 -9.96520e-01
       H  1.74604e+00 -9.05178e-01 -1.17286e-01
       H  3.25558e+00 -7.47331e-01  9.23120e-01
       H  3.48916e+00 -1.44497e+00 -4.72567e-01
       H  8.06462e-02 -1.35954e-01  6.03972e-03
7
# CELL(abcABC):   13.38377    13.38377    13.38377    90.00000    90.00000    90.00000  Step:           6  Bead:       5 positions{angstrom}  cell{angstrom}
       O  5.52185e-01 -9.57481e-01 -1.94940e-01
       O  2.93362e+00 -8.11734e-01  9.39853e-03
       H  1.69386e-01 -1.34354e+00 -9.96466e-01
       H  1.74610e+00 -9.05290e-01 -1.17494e-01
       H  3.25574e+00 -7.44580e-01  9.21363e-01
       H  3.48831e+00 -1.44665e+00 -4.69415e-01
       H  8.04972e-02 -1.35870e-01  5.53469e-03
7
# CELL(abcABC):   13.38377    13.38377    13.38377    90.00000    90.00000    90.00000  Step:           7  Bead:       5 positions{angstrom}  cell{angstrom}
       O  5.51644e-01 -9.58198e-01 -1.93908e-01
       O  2.93462e+00 -8.10825e-01  9.93224e-03
       H  1.69613e-01 -1.34319e+00 -9.96332e-01
       H  1.74621e+00 -9.05380e-01 -1.17765e-01
       H  3.25568e+00 -7.50300e-01  9.21574e-01
       H  3.48797e+00 -1.44302e+00 -4.71690e-01
       H  8.03025e-02 -1.35678e-01  4.61979e-03
7
# CELL(abcABC):   13.38377    13.38377    13.38377    90.00000    90.00000    90.00000  Step:           8  Bead:       5 positions{angstrom}  cell{angstrom}
       O  5.51438e-01 -9.58560e-01 -1.93369e-01
       O  2.93469e+00 -8.09861e-01  1.09320e-02
       H  1.69720e-01 -1.34305e+00 -9.96241e-01
       H  1.74628e+00 -9.05350e-01 -1.17841e-01
       H  3.25542e+00 -7.61338e-01  9.24088e-01
       H  3.48869e+00 -1.43612e+00 -4.78758e-01
       H  8.02804e-02 -1.35576e-01  4.09798e-03
7
# CELL(abcABC):   13.38377    13.38377    13.38377    90.00000    90.00000    90.00000  Step:           9  Bead:       5 positions{angstrom}  cell{angstrom}
       O  5.51235e-01 -9.58928e-01 -1.92769e-01
       O  2.93472e+00 -8.09076e-01  1.14832e-02
       H  1.69889e-01 -1.34292e+00 -9.96119e-01
       H  1.74638e+00 -9.05258e-01 -1.17849e-01
       H  3.25533e+00 -7.68205e-01  9.25004e-01
       H  3.48891e+00 -1.43183e+00 -4.82386e-01
       H  8.03193e-02 -1.35500e-01  3.48761e-03
7
# CELL(abcABC):   13.38377    13.38377    13.38377    90.00000    90.00000    90.00000  Step:          10  Bead:       5 positions{angstrom}  cell{angstrom}
       O  5.51074e-01 -9.59269e-01 -1.92240e-01
       O  2.93465e+00 -8.08355e-01  1.19360e-02
       H  1.70071e-01 -1.34282e+00 -9.95983e-01
       H  1.74648e+00 -9.05138e-01 -1.17807e-01
       H  3.25526e+00 -7.74415e-01  9.25773e-01
       H  3.48911e+00 -1.42795e+00 -4.85585e-01
       H  8.03879e-02 -1.35422e-01  2.91454e-03
