7
# CELL(abcABC):   13.38377    13.38377    13.38377    90.00000    90.00000    90.00000  Step:           0  Bead:      14 forces{atomic_unit}  cell{angstrom}
       O -4.63632e-04  2.35714e-03  2.25917e-03
       O  3.41997e-04  2.69332e-03 -1.56416e-03
       H  1.29020e-03 -1.15553e-04 -6.89857e-04
       H  5.17375e-05 -2.73028e-03 -4.85147e-04
       H  1.29340e-03 -9.35981e-04 -1.45121e-05
       H -1.24716e-03 -2.83687e-04  6.63356e-04
       H -1.27247e-03 -9.84582e-04 -1.66909e-04
7
# CELL(abcABC):   13.38377    13.38377    13.38377    90.00000    90.00000    90.00000  Step:           1  Bead:      14 forces{atomic_unit}  cell{angstrom}
       O -4.14367e-04  2.68666e-04  5.20401e-04
       O  5.30041e-03  3.08020e-03  3.43619e-03
       H  1.68450e-03  3.75063e-04  5.42191e-04
       H  4.78660e-04 -2.05440e-03 -3.21724e-04
       H -1.28423e-03 -6.61960e-03  1.48774e-03
       H -3.91331e-03  4.61793e-03 -5.83500e-03
       H -1.85305e-03  3.34283e-04  1.68936e-04
7
# CELL(abcABC):   13.38377    13.38377    13.38377    90.00000    90.00000    90.00000  Step:           2  Bead:      14 forces{atomic_unit}  cell{angstrom}
       O  8.35698e-05 -2.59901e-04  2.46558e-04
       O  1.25089e-03  7.60117e-04  1.22737e-03
       H  1.68351e-03  4.43437e-04  6.76937e-04
       H  3.79055e-04 -1.71683e-03 -3.14782e-04
       H  7.88263e-04 -2.60161e-03  8.84448e-04
       H -2.32630e-03  2.77373e-03 -2.96479e-03
       H -1.85999e-03  6.02627e-04  2.45053e-04
7
# CELL(abcABC):   13.38377    13.38377    13.38377    90.00000    90.00000    90.00000  Step:           3  Bead:      14 forces{atomic_unit}  cell{angstrom}
       O  2.28115e-04  5.07839e-04  8.83237e-04
       O -2.54644e-03 -2.24142e-04 -1.86288e-03
       H  1.39461e-03  1.80438e-04  1.36833e-04
       H  2.24205e-04 -1.47828e-03 -3.07210e-04
       H  2.47183e-03  9.05328e-04  3.04556e-04
       H -4.09078e-04  1.51243e-04  7.47927e-04
       H -1.36176e-03 -4.49305e-05  9.98767e-05
7
# CELL(abcABC):   13.38377    13.38377    13.38377    90.00000    90.00000    90.00000  Step:           4  Bead:      14 forces{atomic_unit}  cell{angstrom}
       O  1.58678e-05  6.18932e-04  8.82615e-04
       O -1.83125e-03  1.61381e-04 -1.59890e-03
       H  1.32057e-03  1.38787e-04  1.04393e-04
       H  2.09833e-04 -1.23603e-03 -2.56694e-04
       H  2.00284e-03  2.29880e-04  3.51349e-04
       H -5.40449e-04  3.12778e-04  4.54477e-04
       H -1.17675e-03 -2.24584e-04  6.34344e-05
7
# CELL(abcABC):   13.38377    13.38377    13.38377    90.00000    90.00000    90.00000  Step:           5  Bead:      14 forces{atomic_unit}  cell{angstrom}
       O -2.47510e-04  2.29278e-04  5.11920e-04
       O  1.27514e-04  5.08076e-04 -2.80825e-04
       H  1.30822e-03  2.09506e-04  3.12389e-04
       H  1.87731e-04 -8.20630e-04 -1.72041e-04
       H  1.02997e-03 -1.17342e-03  4.74010e-04
       H -1.26303e-03  1.14306e-03 -9.47726e-04
       H -1.14138e-03 -9.73372e-05  1.04845e-04
7
# CELL(abcABC):   13.38377    13.38377    13.38377    90.00000    90.00000    90.00000  Step:           6  Bead:      14 forces{atomic_unit}  cell{angstrom}
       O -2.44896e-04  1.10134e-04  4.65440e-04
       O  1.43162e-04  3.07034e-04 -3.32153e-04
       H  1.20968e-03  1.81871e-04  2.71163e-04
       H  1.23524e-04 -5.34246e-04 -1.27363e-04
       H  1.00292e-03 -8.69987e-04  3.38007e-04
       H -1.17142e-03  8.92700e-04 -7.26061e-04
       H -1.06340e-03 -8.82750e-05  1.13461e-04
7
# CELL(abcABC):   13.38377    13.38377    13.38377    90.00000    90.00000    90.00000  Step:           7  Bead:      14 forces{atomic_unit}  cell{angstrom}
       O -1.46505e-04  1.31443e-04  5.98205e-04
       O -4.10725e-04 -1.95030e-05 -9.06424e-04
       H  9.68659e-04  5.81238e-05  3.43150e-05
       H  1.22725e-05 -8.81073e-05 -6.29001e-05
       H  1.16698e-03 -9.79270e-06  6.69999e-05
       H -7.27930e-04  1.30235e-04  1.77899e-04
       H -8.63088e-04 -2.01445e-04  9.23407e-05
7
# CELL(abcABC):   13.38377    13.38377    13.38377    90.00000    90.00000    90.00000  Step:           8  Bead:      14 forces{atomic_unit}  cell{angstrom}
       O -1.44514e-04  8.52836e-05  5.87744e-04
       O -1.71181e-04 -1.88152e-06 -8.05889e-04
       H  8.69642e-04  2.29520e-05 -2.05532e-05
       H -2.36525e-05  1.39286e-04 -2.84729e-05
       H  9.84967e-04 -8.88491e-05  1.68825e-05
       H -7.34060e-04  7.04048e-05  1.60094e-04
       H -7.82023e-04 -2.26966e-04  8.83091e-05
7
# CELL(abcABC):   13.38377    13.38377    13.38377    90.00000    90.00000    90.00000  Step:           9  Bead:      14 forces{atomic_unit}  cell{angstrom}
       O -1.60352e-04 -6.04416e-05  4.61014e-04
       O  2.77450e-04  1.30626e-05 -4.69385e-04
       H  8.16436e-04  3.60330e-05  2.71640e-05
       H -5.12159e-05  3.55529e-04  3.39782e-06
       H  7.17080e-04 -3.32584e-04 -4.74643e-06
       H -8.64166e-04  1.83671e-04 -1.16896e-04
       H -7.35874e-04 -1.96056e-04  1.01352e-04
7
# CELL(abcABC):   13.38377    13.38377    13.38377    90.00000    90.00000    90.00000  Step:          10  Bead:      14 forces{atomic_unit}  cell{angstrom}
       O -1.39445e-04 -1.10664e-04  4.09325e-04
       O  3.64290e-04 -2.25612e-05 -3.92836e-04
       H  7.53046e-04  2.81275e-05  2.32319e-05
       H -7.51442e-05  5.17990e-04  2.35119e-05
       H  6.15147e-04 -3.23301e-04 -5.69344e-05
       H -8.45614e-04  1.22567e-04 -1.09397e-04
       H -6.73819e-04 -2.11256e-04  1.01129e-04
