7
# CELL(abcABC):   13.38377    13.38377    13.38377    90.00000    90.00000    90.00000  Step:           0  Bead:       6 forces{atomic_unit}  cell{angstrom}
       O -1.57945e-03 -6.02682e-05  1.98559e-03
       O  1.27553e-03  2.10082e-03  2.39423e-04
       H  3.39520e-04  5.78790e-04 -2.12364e-04
       H  1.24609e-04 -8.63757e-04 -1.05455e-03
       H  6.00453e-04 -1.08945e-03 -3.35059e-04
       H -3.77021e-04 -2.74203e-04  5.36923e-04
       H -3.82124e-04 -3.93501e-04 -1.15981e-03
7
# CELL(abcABC):   13.38377    13.38377    13.38377    90.00000    90.00000    90.00000  Step:           1  Bead:       6 forces{atomic_unit}  cell{angstrom}
       O -9.83842e-04 -1.00442e-03  1.30729e-03
       O  8.97505e-04  1.39573e-03 -7.97407e-04
       H  4.31299e-04  6.98483e-04  1.25371e-04
       H  8.58449e-05 -6.05434e-04 -7.77484e-04
       H  7.98389e-04 -8.38936e-04  4.36930e-04
       H -5.20319e-04  2.71896e-05  6.39551e-04
       H -7.10189e-04  3.24269e-04 -9.33592e-04
7
# CELL(abcABC):   13.38377    13.38377    13.38377    90.00000    90.00000    90.00000  Step:           2  Bead:       6 forces{atomic_unit}  cell{angstrom}
       O -7.46165e-04 -1.13859e-03  1.14750e-03
       O  7.02755e-04  1.21727e-03 -9.72973e-04
       H  4.18142e-04  6.71616e-04  1.54732e-04
       H  6.39290e-05 -4.68216e-04 -6.28927e-04
       H  7.77204e-04 -7.71107e-04  5.52781e-04
       H -5.04730e-04  5.32296e-05  6.11695e-04
       H -7.12019e-04  4.36070e-04 -8.64378e-04
7
# CELL(abcABC):   13.38377    13.38377    13.38377    90.00000    90.00000    90.00000  Step:           3  Bead:       6 forces{atomic_unit}  cell{angstrom}
       O -7.47123e-04 -6.88894e-04  1.30650e-03
       O  6.29797e-04  1.36989e-03 -5.29816e-04
       H  3.39382e-04  5.27525e-04 -2.01695e-05
       H  4.99881e-05 -3.83258e-04 -5.29872e-04
       H  5.71661e-04 -8.19445e-04  1.85052e-04
       H -3.84165e-04 -1.06002e-04  4.76983e-04
       H -4.58350e-04  1.00032e-04 -8.87351e-04
7
# CELL(abcABC):   13.38377    13.38377    13.38377    90.00000    90.00000    90.00000  Step:           4  Bead:       6 forces{atomic_unit}  cell{angstrom}
       O -6.94831e-04 -6.01467e-04  1.24530e-03
       O  5.79037e-04  1.30384e-03 -4.55660e-04
       H  3.31198e-04  4.80975e-04 -2.79442e-05
       H  3.76531e-05 -2.99384e-04 -4.36717e-04
       H  4.86020e-04 -8.02210e-04  1.02035e-04
       H -3.73875e-04 -1.10168e-04  4.31112e-04
       H -3.66094e-04  2.97320e-05 -8.59434e-04
7
# CELL(abcABC):   13.38377    13.38377    13.38377    90.00000    90.00000    90.00000  Step:           5  Bead:       6 forces{atomic_unit}  cell{angstrom}
       O -5.46581e-04 -7.02560e-04  1.00217e-03
       O  4.88564e-04  1.05212e-03 -5.85355e-04
       H  3.64071e-04  4.55886e-04  6.24297e-05
       H  1.52539e-05 -1.58508e-04 -2.80839e-04
       H  4.25329e-04 -7.23389e-04  1.70793e-04
       H -4.12827e-04 -2.37890e-05  4.03219e-04
       H -3.30482e-04  1.01636e-04 -7.73419e-04
7
# CELL(abcABC):   13.38377    13.38377    13.38377    90.00000    90.00000    90.00000  Step:           6  Bead:       6 forces{atomic_unit}  cell{angstrom}
       O -4.95007e-04 -6.56721e-04  8.70531e-04
       O  1.32786e-03  4.07923e-04  1.29978e-04
       H  3.46840e-04  3.90062e-04  8.32941e-05
       H  7.53388e-05 -4.41560e-05 -1.63175e-04
       H -1.02901e-05 -1.12444e-03 -1.14157e-03
       H -1.00154e-03  9.42678e-04  9.42569e-04
       H -2.42301e-04  8.25793e-05 -7.23736e-04
7
# CELL(abcABC):   13.38377    13.38377    13.38377    90.00000    90.00000    90.00000  Step:           7  Bead:       6 forces{atomic_unit}  cell{angstrom}
       O -2.31411e-04 -4.72234e-04  7.82296e-04
       O  2.21722e-04  6.79258e-04 -2.51011e-04
       H  3.26907e-04  2.55201e-04  2.44185e-05
       H  6.10584e-05  1.11136e-04  1.74083e-06
       H  1.79433e-04 -9.08564e-04 -5.14824e-04
       H -4.74738e-04  3.37873e-04  5.94720e-04
       H -8.28862e-05 -2.31068e-06 -6.39602e-04
7
# CELL(abcABC):   13.38377    13.38377    13.38377    90.00000    90.00000    90.00000  Step:           8  Bead:       6 forces{atomic_unit}  cell{angstrom}
       O -1.33669e-04 -4.05186e-04  6.86437e-04
       O -1.19604e-04  6.77431e-04 -3.58540e-04
       H  3.32807e-04  1.93670e-04  3.13861e-05
       H  6.27338e-05  1.85166e-04  8.48772e-05
       H  2.11922e-04 -8.49330e-04 -3.76144e-04
       H -3.42673e-04  2.23943e-04  5.14991e-04
       H -9.37916e-06 -2.45549e-05 -5.84437e-04
7
# CELL(abcABC):   13.38377    13.38377    13.38377    90.00000    90.00000    90.00000  Step:           9  Bead:       6 forces{atomic_unit}  cell{angstrom}
       O -1.42808e-04 -3.78189e-04  5.16609e-04
       O  2.90260e-04  3.16381e-04 -3.52983e-05
       H  3.59782e-04  1.43963e-04  9.06311e-05
       H  7.61588e-05  2.40952e-04  1.62852e-04
       H -1.40048e-05 -9.47279e-04 -9.16569e-04
       H -6.16683e-04  6.38268e-04  6.99696e-04
       H  4.66571e-05 -1.60966e-05 -5.15922e-04
7
# CELL(abcABC):   13.38377    13.38377    13.38377    90.00000    90.00000    90.00000  Step:          10  Bead:       6 forces{atomic_unit}  cell{angstrom}
       O -9.71696e-05 -3.23762e-04  4.20081e-04
       O  1.73529e-05  3.66245e-04 -1.59397e-04
       H  3.74834e-04  8.59913e-05  9.90610e-05
       H  5.38122e-05  2.74942e-04  2.14258e-04
       H  2.38586e-05 -8.09067e-04 -6.24919e-04
       H -4.63722e-04  4.18716e-04  5.05318e-04
       H  8.87511e-05 -1.34435e-05 -4.53581e-04
