7
# CELL(abcABC):   13.38377    13.38377    13.38377    90.00000    90.00000    90.00000  Step:           0  Bead:       8 positions{angstrom}  cell{angstrom}
       O  5.54810e-01 -9.55480e-01 -1.98800e-01
       O  2.93625e+00 -8.43700e-01 -3.02800e-02
       H  1.68750e-01 -1.34489e+00 -9.96690e-01
       H  1.74588e+00 -9.04260e-01 -1.15740e-01
       H  3.28048e+00 -3.29190e-01  7.14640e-01
       H  3.44177e+00 -1.66638e+00 -1.00690e-01
       H  8.14400e-02 -1.36290e-01  8.53000e-03
7
# CELL(abcABC):   13.38377    13.38377    13.38377    90.00000    90.00000    90.00000  Step:           1  Bead:       8 positions{angstrom}  cell{angstrom}
       O  5.53911e-01 -9.55305e-01 -1.97560e-01
       O  2.93699e+00 -8.42408e-01 -3.03917e-02
       H  1.69126e-01 -1.34451e+00 -9.96916e-01
       H  1.74596e+00 -9.05045e-01 -1.16399e-01
       H  3.28098e+00 -3.29765e-01  7.14540e-01
       H  3.44138e+00 -1.66652e+00 -1.00297e-01
       H  8.10393e-02 -1.36641e-01  7.99023e-03
7
# CELL(abcABC):   13.38377    13.38377    13.38377    90.00000    90.00000    90.00000  Step:           2  Bead:       8 positions{angstrom}  cell{angstrom}
       O  5.53363e-01 -9.55532e-01 -1.96810e-01
       O  2.93748e+00 -8.41731e-01 -3.07611e-02
       H  1.69472e-01 -1.34414e+00 -9.96958e-01
       H  1.74601e+00 -9.05570e-01 -1.16850e-01
       H  3.28145e+00 -3.30083e-01  7.14705e-01
       H  3.44101e+00 -1.66649e+00 -9.99936e-02
       H  8.05955e-02 -1.36664e-01  7.62761e-03
7
# CELL(abcABC):   13.38377    13.38377    13.38377    90.00000    90.00000    90.00000  Step:           3  Bead:       8 positions{angstrom}  cell{angstrom}
       O  5.52933e-01 -9.56160e-01 -1.96164e-01
       O  2.93791e+00 -8.41289e-01 -3.14822e-02
       H  1.69915e-01 -1.34366e+00 -9.96889e-01
       H  1.74605e+00 -9.06034e-01 -1.17269e-01
       H  3.28208e+00 -3.30287e-01  7.15106e-01
       H  3.44052e+00 -1.66634e+00 -9.96170e-02
       H  7.99713e-02 -1.36447e-01  7.27108e-03
7
# CELL(abcABC):   13.38377    13.38377    13.38377    90.00000    90.00000    90.00000  Step:           4  Bead:       8 positions{angstrom}  cell{angstrom}
       O  5.52583e-01 -9.56496e-01 -1.95567e-01
       O  2.93823e+00 -8.40806e-01 -3.19298e-02
       H  1.70230e-01 -1.34333e+00 -9.96912e-01
       H  1.74608e+00 -9.06365e-01 -1.17572e-01
       H  3.28250e+00 -3.30528e-01  7.15308e-01
       H  3.44018e+00 -1.66630e+00 -9.93461e-02
       H  7.95689e-02 -1.36404e-01  6.96861e-03
7
# CELL(abcABC):   13.38377    13.38377    13.38377    90.00000    90.00000    90.00000  Step:           5  Bead:       8 positions{angstrom}  cell{angstrom}
       O  5.52023e-01 -9.56880e-01 -1.94565e-01
       O  2.93873e+00 -8.39944e-01 -3.25236e-02
       H  1.70706e-01 -1.34285e+00 -9.97010e-01
       H  1.74612e+00 -9.06825e-01 -1.18002e-01
       H  3.28309e+00 -3.30962e-01  7.15494e-01
       H  3.43967e+00 -1.66631e+00 -9.89241e-02
       H  7.90333e-02 -1.36465e-01  6.47484e-03
7
# CELL(abcABC):   13.38377    13.38377    13.38377    90.00000    90.00000    90.00000  Step:           6  Bead:       8 positions{angstrom}  cell{angstrom}
       O  5.51597e-01 -9.57279e-01 -1.93796e-01
       O  2.93912e+00 -8.39313e-01 -3.30742e-02
       H  1.71126e-01 -1.34245e+00 -9.97056e-01
       H  1.74615e+00 -9.07140e-01 -1.18312e-01
       H  3.28357e+00 -3.31313e-01  7.15683e-01
       H  3.43923e+00 -1.66628e+00 -9.85867e-02
       H  7.85846e-02 -1.36482e-01  6.07745e-03
7
# CELL(abcABC):   13.38377    13.38377    13.38377    90.00000    90.00000    90.00000  Step:           7  Bead:       8 positions{angstrom}  cell{angstrom}
       O  5.50888e-01 -9.58059e-01 -1.92462e-01
       O  2.93989e+00 -8.38989e-01 -3.48612e-02
       H  1.71963e-01 -1.34169e+00 -9.97124e-01
       H  1.74618e+00 -9.07626e-01 -1.18790e-01
       H  3.28518e+00 -3.24455e-01  7.10386e-01
       H  3.43727e+00 -1.66920e+00 -8.97745e-02
       H  7.77566e-02 -1.36521e-01  5.39585e-03
7
# CELL(abcABC):   13.38377    13.38377    13.38377    90.00000    90.00000    90.00000  Step:           8  Bead:       8 positions{angstrom}  cell{angstrom}
       O  5.50509e-01 -9.58506e-01 -1.91733e-01
       O  2.94029e+00 -8.37722e-01 -3.45855e-02
       H  1.72380e-01 -1.34131e+00 -9.97159e-01
       H  1.74620e+00 -9.07735e-01 -1.18973e-01
       H  3.28480e+00 -3.32370e-01  7.15959e-01
       H  3.43779e+00 -1.66605e+00 -9.75409e-02
       H  7.74132e-02 -1.36566e-01  4.96918e-03
7
# CELL(abcABC):   13.38377    13.38377    13.38377    90.00000    90.00000    90.00000  Step:           9  Bead:       8 positions{angstrom}  cell{angstrom}
       O  5.50155e-01 -9.58965e-01 -1.90888e-01
       O  2.94050e+00 -8.37139e-01 -3.54702e-02
       H  1.72960e-01 -1.34088e+00 -9.97248e-01
       H  1.74620e+00 -9.07779e-01 -1.19095e-01
       H  3.28543e+00 -3.31502e-01  7.15229e-01
       H  3.43708e+00 -1.66668e+00 -9.58226e-02
       H  7.70258e-02 -1.36707e-01  4.53004e-03
7
# CELL(abcABC):   13.38377    13.38377    13.38377    90.00000    90.00000    90.00000  Step:          10  Bead:       8 positions{angstrom}  cell{angstrom}
       O  5.49846e-01 -9.59426e-01 -1.90140e-01
       O  2.94073e+00 -8.36335e-01 -3.59237e-02
       H  1.73513e-01 -1.34050e+00 -9.97318e-01
       H  1.74618e+00 -9.07715e-01 -1.19143e-01
       H  3.28562e+00 -3.33934e-01  7.16859e-01
       H  3.43681e+00 -1.66593e+00 -9.77229e-02
       H  7.67142e-02 -1.36839e-01  4.11590e-03
