7
# CELL(abcABC):   13.38377    13.38377    13.38377    90.00000    90.00000    90.00000  Step:           0  Bead:      11 forces{atomic_unit}  cell{angstrom}
       O -1.17191e-03  1.33722e-03  2.43779e-03
       O  9.35245e-04  2.61489e-03 -7.78608e-04
       H  1.18134e-03  4.80205e-04 -6.75762e-04
       H  1.27299e-04 -2.35510e-03 -1.08315e-03
       H  1.29530e-03 -9.31752e-04 -1.92215e-04
       H -1.17153e-03 -1.89455e-04  7.96636e-04
       H -1.19445e-03 -9.57426e-04 -5.05132e-04
7
# CELL(abcABC):   13.38377    13.38377    13.38377    90.00000    90.00000    90.00000  Step:           1  Bead:      11 forces{atomic_unit}  cell{angstrom}
       O -6.86006e-04 -5.10090e-04  1.06226e-03
       O  6.53694e-04  3.63706e-04 -1.00969e-03
       H  1.45442e-03  8.72124e-04  1.96543e-04
       H  8.93010e-05 -1.74056e-03 -8.37538e-04
       H  1.67436e-03  2.01035e-04  3.48678e-04
       H -1.48725e-03  5.95669e-04  4.15722e-04
       H -1.69966e-03  2.20588e-04 -1.80235e-04
7
# CELL(abcABC):   13.38377    13.38377    13.38377    90.00000    90.00000    90.00000  Step:           2  Bead:      11 forces{atomic_unit}  cell{angstrom}
       O -5.13364e-04 -8.40396e-04  7.98906e-04
       O  5.20848e-04 -5.65691e-05 -1.04999e-03
       H  1.42698e-03  8.89010e-04  2.95081e-04
       H  6.77616e-05 -1.40818e-03 -6.98265e-04
       H  1.64616e-03  3.69970e-04  4.08289e-04
       H -1.46431e-03  6.63077e-04  3.59061e-04
       H -1.68486e-03  3.84962e-04 -1.12357e-04
7
# CELL(abcABC):   13.38377    13.38377    13.38377    90.00000    90.00000    90.00000  Step:           3  Bead:      11 forces{atomic_unit}  cell{angstrom}
       O -5.59355e-04 -1.16010e-04  1.27378e-03
       O  4.97019e-04  7.76096e-04 -9.38334e-04
       H  1.17938e-03  6.35137e-04 -1.43784e-04
       H  5.35309e-05 -1.18904e-03 -6.02883e-04
       H  1.28844e-03 -1.47220e-04  1.06601e-04
       H -1.19451e-03  2.24465e-04  5.19813e-04
       H -1.26401e-03 -1.82980e-04 -2.17274e-04
7
# CELL(abcABC):   13.38377    13.38377    13.38377    90.00000    90.00000    90.00000  Step:           4  Bead:      11 forces{atomic_unit}  cell{angstrom}
       O -5.63257e-04 -2.14143e-05  1.24413e-03
       O  1.39587e-03  8.89642e-04  2.08502e-05
       H  1.12475e-03  5.66251e-04 -1.94224e-04
       H  1.20518e-04 -9.82389e-04 -5.10151e-04
       H  7.00376e-04 -1.49914e-03 -4.53223e-04
       H -1.63990e-03  1.34133e-03  8.67900e-05
       H -1.13811e-03 -2.93173e-04 -1.97649e-04
7
# CELL(abcABC):   13.38377    13.38377    13.38377    90.00000    90.00000    90.00000  Step:           5  Bead:      11 forces{atomic_unit}  cell{angstrom}
       O -3.14526e-04 -3.73379e-04  9.09940e-04
       O  3.91749e-04  3.11093e-04 -6.38762e-04
       H  1.12204e-03  5.87775e-04 -5.13381e-05
       H  1.01222e-04 -6.25391e-04 -3.71405e-04
       H  1.04691e-03 -6.34122e-04 -4.56481e-05
       H -1.24619e-03  8.54025e-04  3.09112e-04
       H -1.10059e-03 -1.21157e-04 -1.10893e-04
7
# CELL(abcABC):   13.38377    13.38377    13.38377    90.00000    90.00000    90.00000  Step:           6  Bead:      11 forces{atomic_unit}  cell{angstrom}
       O -2.22012e-04 -4.04694e-04  7.99942e-04
       O  8.79936e-06  1.88641e-04 -8.30217e-04
       H  1.07526e-03  5.46348e-04 -4.89123e-05
       H  9.42862e-05 -3.78070e-04 -2.70802e-04
       H  1.07866e-03 -4.45402e-04  3.44045e-05
       H -1.05332e-03  6.48240e-04  3.95218e-04
       H -9.82749e-04 -1.55178e-04 -7.86983e-05
7
# CELL(abcABC):   13.38377    13.38377    13.38377    90.00000    90.00000    90.00000  Step:           7  Bead:      11 forces{atomic_unit}  cell{angstrom}
       O -2.07621e-04 -2.14098e-04  7.52246e-04
       O  1.21143e-04  3.15877e-04 -5.47205e-04
       H  9.57795e-04  4.14215e-04 -1.50702e-04
       H  9.25638e-05 -1.12408e-06 -1.09853e-04
       H  7.47079e-04 -8.98368e-04 -2.01339e-04
       H -1.00954e-03  7.61955e-04  3.10858e-04
       H -7.01687e-04 -3.79144e-04 -5.33262e-05
7
# CELL(abcABC):   13.38377    13.38377    13.38377    90.00000    90.00000    90.00000  Step:           8  Bead:      11 forces{atomic_unit}  cell{angstrom}
       O -1.73252e-04 -1.98526e-04  6.71844e-04
       O  8.39307e-05  2.71373e-04 -5.01649e-04
       H  9.10269e-04  3.61842e-04 -1.68329e-04
       H  8.17863e-05  1.89294e-04 -2.67008e-05
       H  6.51598e-04 -9.21310e-04 -2.45093e-04
       H -9.57031e-04  7.20767e-04  2.93691e-04
       H -5.94632e-04 -4.23691e-04 -2.31495e-05
7
# CELL(abcABC):   13.38377    13.38377    13.38377    90.00000    90.00000    90.00000  Step:           9  Bead:      11 forces{atomic_unit}  cell{angstrom}
       O -8.05784e-05 -2.98994e-04  5.22670e-04
       O -2.35647e-04  7.92994e-05 -7.20159e-04
       H  8.77012e-04  3.29074e-04 -1.43521e-04
       H  4.54548e-05  3.65877e-04  5.47104e-05
       H  7.31626e-04 -5.04548e-04 -1.28482e-04
       H -7.88232e-04  3.95029e-04  3.82727e-04
       H -5.49629e-04 -3.65408e-04  3.40123e-05
7
# CELL(abcABC):   13.38377    13.38377    13.38377    90.00000    90.00000    90.00000  Step:          10  Bead:      11 forces{atomic_unit}  cell{angstrom}
       O -4.54833e-05 -3.09151e-04  4.35583e-04
       O -2.76057e-04  2.06100e-05 -7.26821e-04
       H  8.35765e-04  2.83293e-04 -1.55698e-04
       H  1.76883e-05  4.94894e-04  1.18455e-04
       H  6.83396e-04 -3.62211e-04 -1.36508e-04
       H -7.26192e-04  2.35684e-04  3.91094e-04
       H -4.89300e-04 -3.63333e-04  7.31006e-05
