7
# CELL(abcABC):   13.38377    13.38377    13.38377    90.00000    90.00000    90.00000  Step:           0  Bead:       3 forces{atomic_unit}  cell{angstrom}
       O -7.98013e-04 -1.61262e-04  1.11070e-03
       O  5.68254e-04  1.06148e-03  6.06801e-04
       H -3.34310e-05  1.49436e-04  3.41203e-05
       H  6.36945e-05 -2.31131e-04 -5.60615e-04
       H  1.57252e-04 -7.19669e-04 -4.74802e-04
       H  4.50342e-06 -4.95859e-05  1.57029e-04
       H  3.74499e-05 -4.76291e-05 -8.72342e-04
7
# CELL(abcABC):   13.38377    13.38377    13.38377    90.00000    90.00000    90.00000  Step:           1  Bead:       3 forces{atomic_unit}  cell{angstrom}
       O -5.24994e-04 -6.06983e-04  7.46033e-04
       O  4.13344e-04  9.71946e-04 -2.52342e-05
       H  3.49530e-05  2.13255e-04  2.24082e-04
       H  4.21224e-05 -1.51127e-04 -4.06946e-04
       H  2.57954e-04 -7.89930e-04 -6.65381e-05
       H -9.55453e-05  6.16723e-05  2.81119e-04
       H -1.26575e-04  3.00619e-04 -7.54109e-04
7
# CELL(abcABC):   13.38377    13.38377    13.38377    90.00000    90.00000    90.00000  Step:           2  Bead:       3 forces{atomic_unit}  cell{angstrom}
       O -4.10499e-04 -6.59223e-04  6.55402e-04
       O  3.22277e-04  9.17778e-04 -1.43082e-04
       H  3.84006e-05  1.97102e-04  2.43926e-04
       H  3.00460e-05 -1.10862e-04 -3.24738e-04
       H  2.51313e-04 -7.85316e-04  1.13403e-05
       H -9.74211e-05  8.51273e-05  2.69661e-04
       H -1.32478e-04  3.53660e-04 -7.14100e-04
7
# CELL(abcABC):   13.38377    13.38377    13.38377    90.00000    90.00000    90.00000  Step:           3  Bead:       3 forces{atomic_unit}  cell{angstrom}
       O -5.57166e-04 -3.62164e-04  6.08669e-04
       O  4.70033e-03 -2.59403e-03  1.47506e-03
       H -3.84716e-05  7.54397e-05  1.80928e-04
       H  3.76120e-04 -1.36836e-05 -1.95804e-04
       H -1.42740e-03  6.69201e-04 -6.22079e-03
       H -3.09381e-03  2.06796e-03  4.82165e-03
       H  3.97776e-05  1.60941e-04 -6.69625e-04
7
# CELL(abcABC):   13.38377    13.38377    13.38377    90.00000    90.00000    90.00000  Step:           4  Bead:       3 forces{atomic_unit}  cell{angstrom}
       O -1.58443e-04 -3.03800e-04  6.82687e-04
       O  9.21254e-04 -2.85269e-04  4.69163e-04
       H -2.78732e-05  3.30644e-05  1.15098e-04
       H  2.64924e-04  1.84244e-05 -1.46029e-04
       H -1.64893e-04 -3.48982e-04 -2.58314e-03
       H -8.91244e-04  7.19740e-04  2.11621e-03
       H  5.73507e-05  1.65386e-04 -6.53048e-04
7
# CELL(abcABC):   13.38377    13.38377    13.38377    90.00000    90.00000    90.00000  Step:           5  Bead:       3 forces{atomic_unit}  cell{angstrom}
       O  7.69404e-05 -3.30482e-04  5.51728e-04
       O -1.72424e-03  1.28127e-03 -4.47933e-04
       H  4.19362e-05  3.40179e-05  1.92273e-04
       H  1.87299e-04  5.82730e-05 -6.11948e-05
       H  7.40908e-04 -1.02304e-03  5.36303e-05
       H  6.06622e-04 -2.23412e-04  3.15082e-04
       H  7.60409e-05  2.03447e-04 -6.01443e-04
7
# CELL(abcABC):   13.38377    13.38377    13.38377    90.00000    90.00000    90.00000  Step:           6  Bead:       3 forces{atomic_unit}  cell{angstrom}
       O -9.52127e-06 -2.82836e-04  4.10901e-04
       O -1.22926e-03  8.67217e-04 -3.12693e-04
       H  8.07816e-05  2.22585e-05  2.65942e-04
       H  2.06754e-04  7.50532e-05 -1.88436e-06
       H  5.35788e-04 -8.50856e-04 -5.55329e-04
       H  2.83350e-04  7.48770e-06  7.56448e-04
       H  1.31347e-04  1.63135e-04 -5.63698e-04
7
# CELL(abcABC):   13.38377    13.38377    13.38377    90.00000    90.00000    90.00000  Step:           7  Bead:       3 forces{atomic_unit}  cell{angstrom}
       O -1.83184e-04 -1.46986e-04  2.66462e-04
       O  6.46537e-05 -4.45738e-05  1.68227e-04
       H  1.00864e-04 -3.18039e-05  3.03005e-04
       H  2.23855e-04  7.70243e-05  6.90918e-05
       H  1.04450e-06 -3.79771e-04 -1.88610e-03
       H -4.24332e-04  4.48277e-04  1.58331e-03
       H  2.18562e-04  8.18503e-05 -5.04018e-04
7
# CELL(abcABC):   13.38377    13.38377    13.38377    90.00000    90.00000    90.00000  Step:           8  Bead:       3 forces{atomic_unit}  cell{angstrom}
       O -1.37179e-04 -1.08233e-04  2.51562e-04
       O -2.25093e-04  1.53908e-04  1.10714e-04
       H  8.99803e-05 -7.86429e-05  2.68091e-04
       H  1.79611e-04  7.17179e-05  9.88464e-05
       H  6.55021e-05 -4.51477e-04 -1.43079e-03
       H -1.94932e-04  3.17259e-04  1.17183e-03
       H  2.25781e-04  9.42251e-05 -4.69136e-04
7
# CELL(abcABC):   13.38377    13.38377    13.38377    90.00000    90.00000    90.00000  Step:           9  Bead:       3 forces{atomic_unit}  cell{angstrom}
       O -4.89010e-05 -1.16782e-04  2.33364e-04
       O -5.85875e-04  4.36739e-04 -8.03098e-05
       H  7.15715e-05 -1.26661e-04  2.26487e-04
       H  1.14616e-04  6.09504e-05  1.28321e-04
       H  1.79622e-04 -5.81568e-04 -7.29433e-04
       H  7.51058e-05  1.66335e-04  6.45231e-04
       H  1.94389e-04  1.58232e-04 -4.23397e-04
7
# CELL(abcABC):   13.38377    13.38377    13.38377    90.00000    90.00000    90.00000  Step:          10  Bead:       3 forces{atomic_unit}  cell{angstrom}
       O -2.84530e-05 -1.06314e-04  2.12329e-04
       O -5.51475e-04  4.80856e-04 -1.14532e-04
       H  5.58629e-05 -1.66111e-04  1.97136e-04
       H  6.18755e-05  4.66812e-05  1.40983e-04
       H  1.53690e-04 -5.87416e-04 -4.27141e-04
       H  1.29900e-04  1.42379e-04  3.80409e-04
       H  1.77609e-04  1.93594e-04 -3.88798e-04
