7
# CELL(abcABC):   13.38377    13.38377    13.38377    90.00000    90.00000    90.00000  Step:           0  Bead:       4 forces{atomic_unit}  cell{angstrom}
       O -1.09916e-03 -1.75494e-04  1.42584e-03
       O  8.30893e-04  1.45368e-03  5.69618e-04
       H  5.16806e-05  2.94320e-04 -2.76273e-05
       H  8.36991e-05 -3.92517e-04 -7.32406e-04
       H  2.84950e-04 -8.92560e-04 -4.66683e-04
       H -8.46825e-05 -1.42560e-04  2.62902e-04
       H -6.89937e-05 -1.42246e-04 -1.03096e-03
7
# CELL(abcABC):   13.38377    13.38377    13.38377    90.00000    90.00000    90.00000  Step:           1  Bead:       4 forces{atomic_unit}  cell{angstrom}
       O -7.06245e-04 -7.75867e-04  9.65319e-04
       O  5.90731e-04  1.21705e-03 -2.35495e-04
       H  1.25559e-04  3.71497e-04  2.02289e-04
       H  5.64370e-05 -2.63813e-04 -5.31470e-04
       H  4.19011e-04 -8.96941e-04  8.70230e-05
       H -1.96238e-04  1.95669e-05  3.88418e-04
       H -2.87733e-04  3.25828e-04 -8.75521e-04
7
# CELL(abcABC):   13.38377    13.38377    13.38377    90.00000    90.00000    90.00000  Step:           2  Bead:       4 forces{atomic_unit}  cell{angstrom}
       O -5.43943e-04 -8.52005e-04  8.49994e-04
       O  4.60319e-04  1.12973e-03 -3.80656e-04
       H  1.25836e-04  3.49823e-04  2.25111e-04
       H  4.21835e-05 -1.96030e-04 -4.24453e-04
       H  4.05849e-04 -8.74223e-04  1.80678e-04
       H -1.94049e-04  4.42725e-05  3.70014e-04
       H -2.94509e-04  4.00323e-04 -8.23215e-04
7
# CELL(abcABC):   13.38377    13.38377    13.38377    90.00000    90.00000    90.00000  Step:           3  Bead:       4 forces{atomic_unit}  cell{angstrom}
       O -5.35329e-04 -5.43916e-04  9.51603e-04
       O  4.04719e-04  1.11111e-03 -6.22833e-05
       H  7.87480e-05  2.49383e-04  1.09280e-04
       H  3.05477e-05 -1.56581e-04 -3.55976e-04
       H  2.70481e-04 -8.22341e-04 -5.46635e-05
       H -1.16762e-04 -1.92827e-05  2.44337e-04
       H -1.33302e-04  1.82284e-04 -8.29809e-04
7
# CELL(abcABC):   13.38377    13.38377    13.38377    90.00000    90.00000    90.00000  Step:           4  Bead:       4 forces{atomic_unit}  cell{angstrom}
       O -5.64845e-04 -4.60093e-04  8.40649e-04
       O  2.37901e-03 -4.60231e-04  9.28115e-04
       H  5.57364e-05  1.88973e-04  1.28604e-04
       H  1.82321e-04 -7.81000e-05 -2.56725e-04
       H -5.12054e-04 -7.20254e-04 -2.96916e-03
       H -1.49139e-03  1.39178e-03  2.11992e-03
       H -4.75083e-05  1.36414e-04 -7.89299e-04
7
# CELL(abcABC):   13.38377    13.38377    13.38377    90.00000    90.00000    90.00000  Step:           5  Bead:       4 forces{atomic_unit}  cell{angstrom}
       O -1.95942e-04 -4.96424e-04  7.39307e-04
       O  7.05469e-05  6.41192e-04 -8.27413e-05
       H  8.30369e-05  1.50682e-04  1.42811e-04
       H  1.46909e-04  6.95763e-06 -1.40244e-04
       H  2.29811e-04 -8.90435e-04 -8.88058e-04
       H -2.97825e-04  3.75874e-04  9.50070e-04
       H -3.80652e-05  2.11119e-04 -7.20854e-04
7
# CELL(abcABC):   13.38377    13.38377    13.38377    90.00000    90.00000    90.00000  Step:           6  Bead:       4 forces{atomic_unit}  cell{angstrom}
       O -8.59018e-05 -4.42081e-04  6.46689e-04
       O -5.81863e-04  8.42383e-04 -3.15640e-04
       H  1.03861e-04  1.12402e-04  1.68002e-04
       H  1.50803e-04  5.84478e-05 -5.89608e-05
       H  3.95538e-04 -9.24328e-04 -4.86784e-04
       H -1.82752e-06  1.60168e-04  7.23250e-04
       H  1.98270e-05  1.91851e-04 -6.75685e-04
7
# CELL(abcABC):   13.38377    13.38377    13.38377    90.00000    90.00000    90.00000  Step:           7  Bead:       4 forces{atomic_unit}  cell{angstrom}
       O -1.50854e-04 -2.68450e-04  4.68091e-04
       O  6.29939e-05  2.07339e-04  1.30920e-04
       H  1.37757e-04  4.06573e-05  2.25825e-04
       H  1.88732e-04  1.17889e-04  6.06747e-05
       H  3.79828e-05 -7.85546e-04 -1.57076e-03
       H -4.34815e-04  6.07514e-04  1.29313e-03
       H  1.57891e-04  8.09905e-05 -6.09042e-04
7
# CELL(abcABC):   13.38377    13.38377    13.38377    90.00000    90.00000    90.00000  Step:           8  Bead:       4 forces{atomic_unit}  cell{angstrom}
       O -1.33015e-04 -2.11421e-04  3.90889e-04
       O  2.12509e-05  1.51593e-04  1.59523e-04
       H  1.48530e-04 -4.03162e-06  2.35580e-04
       H  1.76772e-04  1.37159e-04  1.16377e-04
       H -4.32152e-06 -7.39470e-04 -1.57196e-03
       H -4.10341e-04  5.99063e-04  1.23443e-03
       H  1.98567e-04  6.63434e-05 -5.65132e-04
7
# CELL(abcABC):   13.38377    13.38377    13.38377    90.00000    90.00000    90.00000  Step:           9  Bead:       4 forces{atomic_unit}  cell{angstrom}
       O -1.51672e-05 -2.01547e-04  3.38633e-04
       O -6.42945e-04  5.11035e-04 -1.93918e-04
       H  1.46981e-04 -6.13483e-05  2.10615e-04
       H  1.28725e-04  1.46905e-04  1.65012e-04
       H  2.04298e-04 -7.74132e-04 -6.95198e-04
       H -1.52653e-05  2.55154e-04  6.80642e-04
       H  1.92844e-04  1.20077e-04 -5.04663e-04
7
# CELL(abcABC):   13.38377    13.38377    13.38377    90.00000    90.00000    90.00000  Step:          10  Bead:       4 forces{atomic_unit}  cell{angstrom}
       O  9.51275e-06 -1.68455e-04  2.89069e-04
       O -7.83101e-04  6.09569e-04 -2.88691e-04
       H  1.49157e-04 -1.09617e-04  1.94723e-04
       H  8.44281e-05  1.41095e-04  1.92721e-04
       H  2.24840e-04 -7.41396e-04 -3.04938e-04
       H  1.17424e-04  1.24771e-04  3.71188e-04
       H  1.95632e-04  1.45627e-04 -4.56245e-04
