7
# CELL(abcABC):   13.38377    13.38377    13.38377    90.00000    90.00000    90.00000  Step:           0  Bead:       6 positions{angstrom}  cell{angstrom}
       O  5.54810e-01 -9.55480e-01 -1.98800e-01
       O  2.93311e+00 -8.23540e-01 -6.65000e-03
       H  1.68750e-01 -1.34489e+00 -9.96690e-01
       H  1.74588e+00 -9.04260e-01 -1.15740e-01
       H  3.26075e+00 -5.77420e-01  8.70960e-01
       H  3.47376e+00 -1.55031e+00 -3.48460e-01
       H  8.14400e-02 -1.36290e-01  8.53000e-03
7
# CELL(abcABC):   13.38377    13.38377    13.38377    90.00000    90.00000    90.00000  Step:           1  Bead:       6 positions{angstrom}  cell{angstrom}
       O  5.53974e-01 -9.55512e-01 -1.97749e-01
       O  2.93379e+00 -8.22434e-01 -6.53137e-03
       H  1.68930e-01 -1.34458e+00 -9.96802e-01
       H  1.74595e+00 -9.04717e-01 -1.16298e-01
       H  3.26107e+00 -5.77913e-01  8.70740e-01
       H  3.47355e+00 -1.55050e+00 -3.48100e-01
       H  8.12378e-02 -1.36498e-01  7.91625e-03
7
# CELL(abcABC):   13.38377    13.38377    13.38377    90.00000    90.00000    90.00000  Step:           2  Bead:       6 positions{angstrom}  cell{angstrom}
       O  5.53459e-01 -9.55803e-01 -1.97081e-01
       O  2.93423e+00 -8.21728e-01 -6.72531e-03
       H  1.69102e-01 -1.34430e+00 -9.96799e-01
       H  1.74599e+00 -9.05018e-01 -1.16676e-01
       H  3.26139e+00 -5.78252e-01  8.70780e-01
       H  3.47334e+00 -1.55057e+00 -3.47783e-01
       H  8.09803e-02 -1.36467e-01  7.47826e-03
7
# CELL(abcABC):   13.38377    13.38377    13.38377    90.00000    90.00000    90.00000  Step:           3  Bead:       6 positions{angstrom}  cell{angstrom}
       O  5.53047e-01 -9.56405e-01 -1.96463e-01
       O  2.93462e+00 -8.21079e-01 -7.24666e-03
       H  1.69327e-01 -1.34394e+00 -9.96717e-01
       H  1.74602e+00 -9.05276e-01 -1.17021e-01
       H  3.26182e+00 -5.78563e-01  8.71018e-01
       H  3.47306e+00 -1.55059e+00 -3.47361e-01
       H  8.05991e-02 -1.36238e-01  7.01491e-03
7
# CELL(abcABC):   13.38377    13.38377    13.38377    90.00000    90.00000    90.00000  Step:           4  Bead:       6 positions{angstrom}  cell{angstrom}
       O  5.52717e-01 -9.56757e-01 -1.95919e-01
       O  2.93491e+00 -8.20510e-01 -7.53374e-03
       H  1.69483e-01 -1.34369e+00 -9.96703e-01
       H  1.74605e+00 -9.05459e-01 -1.17268e-01
       H  3.26209e+00 -5.78848e-01  8.71112e-01
       H  3.47287e+00 -1.55065e+00 -3.47081e-01
       H  8.03673e-02 -1.36153e-01  6.63505e-03
7
# CELL(abcABC):   13.38377    13.38377    13.38377    90.00000    90.00000    90.00000  Step:           5  Bead:       6 positions{angstrom}  cell{angstrom}
       O  5.52191e-01 -9.57198e-01 -1.95026e-01
       O  2.93535e+00 -8.19581e-01 -7.87595e-03
       H  1.69721e-01 -1.34334e+00 -9.96716e-01
       H  1.74608e+00 -9.05708e-01 -1.17617e-01
       H  3.26247e+00 -5.79303e-01  8.71146e-01
       H  3.47259e+00 -1.55078e+00 -3.46659e-01
       H  8.00802e-02 -1.36115e-01  6.02378e-03
7
# CELL(abcABC):   13.38377    13.38377    13.38377    90.00000    90.00000    90.00000  Step:           6  Bead:       6 positions{angstrom}  cell{angstrom}
       O  5.51809e-01 -9.57625e-01 -1.94365e-01
       O  2.93550e+00 -8.17886e-01 -6.79199e-03
       H  1.69885e-01 -1.34307e+00 -9.96682e-01
       H  1.74610e+00 -9.05816e-01 -1.17839e-01
       H  3.26182e+00 -5.93774e-01  8.78416e-01
       H  3.47402e+00 -1.54347e+00 -3.59105e-01
       H  7.99003e-02 -1.36039e-01  5.50474e-03
7
# CELL(abcABC):   13.38377    13.38377    13.38377    90.00000    90.00000    90.00000  Step:           7  Bead:       6 positions{angstrom}  cell{angstrom}
       O  5.51122e-01 -9.58429e-01 -1.93179e-01
       O  2.93659e+00 -8.16731e-01 -6.75333e-03
       H  1.70289e-01 -1.34255e+00 -9.96613e-01
       H  1.74617e+00 -9.06014e-01 -1.18193e-01
       H  3.26192e+00 -5.97834e-01  8.79372e-01
       H  3.47355e+00 -1.54140e+00 -3.60960e-01
       H  7.95181e-02 -1.35919e-01  4.59112e-03
7
# CELL(abcABC):   13.38377    13.38377    13.38377    90.00000    90.00000    90.00000  Step:           8  Bead:       6 positions{angstrom}  cell{angstrom}
       O  5.50800e-01 -9.58858e-01 -1.92527e-01
       O  2.93702e+00 -8.15882e-01 -6.43054e-03
       H  1.70509e-01 -1.34229e+00 -9.96575e-01
       H  1.74621e+00 -9.06046e-01 -1.18323e-01
       H  3.26178e+00 -6.03084e-01  8.81235e-01
       H  3.47365e+00 -1.53864e+00 -3.64552e-01
       H  7.93720e-02 -1.35867e-01  4.06445e-03
7
# CELL(abcABC):   13.38377    13.38377    13.38377    90.00000    90.00000    90.00000  Step:           9  Bead:       6 positions{angstrom}  cell{angstrom}
       O  5.50538e-01 -9.59312e-01 -1.91801e-01
       O  2.93708e+00 -8.14640e-01 -5.95850e-03
       H  1.70778e-01 -1.34206e+00 -9.96532e-01
       H  1.74626e+00 -9.05968e-01 -1.18367e-01
       H  3.26150e+00 -6.11579e-01  8.84807e-01
       H  3.47420e+00 -1.53436e+00 -3.71000e-01
       H  7.92975e-02 -1.35840e-01  3.45150e-03
7
# CELL(abcABC):   13.38377    13.38377    13.38377    90.00000    90.00000    90.00000  Step:          10  Bead:       6 positions{angstrom}  cell{angstrom}
       O  5.50297e-01 -9.59740e-01 -1.91141e-01
       O  2.93730e+00 -8.13948e-01 -6.01484e-03
       H  1.71095e-01 -1.34183e+00 -9.96482e-01
       H  1.74632e+00 -9.05874e-01 -1.18367e-01
       H  3.26154e+00 -6.14089e-01  8.85230e-01
       H  3.47394e+00 -1.53314e+00 -3.72017e-01
       H  7.92252e-02 -1.35831e-01  2.89162e-03
