#Bead    Energy (eV)
0     -0.13743977632166332
1     -0.11826155056011063
2     -0.08169679240025249
3     -0.037046092089385946
4     -0.004672675283294404
5     -0.0046726752832943865
6     -0.03704609208938584
7     -0.08169679240025243
8     -0.11826155056011053
9     -0.13743977632166332
