80
# CELL(abcABC):   13.17884    17.29009    24.21482    90.00000    66.14000    90.00000  cell{atomic_unit}  Traj: positions{atomic_unit} Step:         133  Bead:       0 
       C  1.60668e+01  1.03254e+01  1.80541e+01
       H  1.51661e+01  1.21809e+01  1.80664e+01
       H  1.56512e+01  9.32047e+00  1.98109e+01
       H  1.81095e+01  1.06026e+01  1.78957e+01
       C  1.50483e+01  8.85169e+00  1.58587e+01
       O  1.27797e+01  8.73107e+00  1.54562e+01
       N  1.68872e+01  7.48810e+00  1.46505e+01
       H  1.86352e+01  7.49923e+00  1.54712e+01
       C  1.66666e+01  5.98889e+00  1.24728e+01
       C  1.45368e+01  5.94263e+00  1.08936e+01
       H  1.29025e+01  7.10464e+00  1.12966e+01
       C  1.45387e+01  4.42746e+00  8.72669e+00
       H  1.29217e+01  4.43231e+00  7.47018e+00
       C  1.87905e+01  4.54188e+00  1.18550e+01
       H  2.04565e+01  4.60362e+00  1.30421e+01
       C  1.87933e+01  3.00717e+00  9.70565e+00
       H  2.04349e+01  1.87443e+00  9.25084e+00
       C  1.66621e+01  2.97445e+00  8.17205e+00
       O  1.66595e+01  1.52821e+00  6.02235e+00
       H  1.84127e+01  9.29628e-01  5.74226e+00
       C  1.17804e+01  1.89641e+01  1.51539e+01
       H  9.73878e+00  1.92434e+01  1.53147e+01
       H  1.21874e+01  1.79510e+01  1.34002e+01
       H  1.26827e+01  2.08184e+01  1.51352e+01
       C  1.28026e+01  1.74978e+01  1.73522e+01
       O  1.50719e+01  1.73786e+01  1.77522e+01
       N  1.09672e+01  1.61332e+01  1.85637e+01
       H  9.21904e+00  1.61415e+01  1.77448e+01
       C  1.11870e+01  1.46342e+01  2.07412e+01
       C  9.06280e+00  1.31857e+01  2.13571e+01
       H  7.39753e+00  1.32445e+01  2.01682e+01
       C  9.05814e+00  1.16517e+01  2.35073e+01
       H  7.41842e+00  1.05168e+01  2.39643e+01
       C  1.33167e+01  1.45881e+01  2.23199e+01
       H  1.49500e+01  1.57510e+01  2.19148e+01
       C  1.33121e+01  1.30740e+01  2.44874e+01
       H  1.49272e+01  1.30814e+01  2.57457e+01
       C  1.11887e+01  1.16210e+01  2.50414e+01
       O  1.11909e+01  1.01799e+01  2.71941e+01
       H  9.43878e+00  9.57863e+00  2.74743e+01
       C  6.89850e+00  6.96870e+00  4.08736e+00
       H  7.29964e+00  7.98988e+00  2.33704e+00
       H  7.81985e+00  5.12408e+00  4.06206e+00
       H  4.86006e+00  6.66770e+00  4.24988e+00
       C  7.90699e+00  8.43869e+00  6.28832e+00
       O  1.01749e+01  8.56217e+00  6.69614e+00
       N  6.06628e+00  9.80116e+00  7.49350e+00
       H  4.31921e+00  9.78837e+00  6.67107e+00
       C  6.28605e+00  1.12993e+01  9.67302e+00
       C  4.16314e+00  1.27470e+01  1.02910e+01
       H  2.49864e+00  1.26870e+01  9.10139e+00
       C  4.16055e+00  1.42797e+01  1.24424e+01
       H  2.52060e+00  1.54137e+01  1.28999e+01
       C  8.41649e+00  1.13458e+01  1.12518e+01
       H  1.00484e+01  1.01823e+01  1.08447e+01
       C  8.41558e+00  1.28588e+01  1.34207e+01
       H  1.00313e+01  1.28520e+01  1.46795e+01
       C  6.29198e+00  1.43106e+01  1.39758e+01
       O  6.29329e+00  1.57503e+01  1.61294e+01
       H  4.54106e+00  1.63532e+01  1.64060e+01
       C  1.11603e+01 -1.68763e+00  6.97585e+00
       H  1.07563e+01 -6.77086e-01  8.73180e+00
       H  1.32000e+01 -1.98271e+00  6.81439e+00
       H  1.02428e+01 -3.53449e+00  6.99043e+00
       C  1.01496e+01 -2.09408e-01  4.78069e+00
       O  7.88144e+00 -8.12066e-02  4.37641e+00
       N  1.19916e+01  1.15099e+00  3.57447e+00
       H  1.37389e+01  1.13809e+00  4.39663e+00
       C  1.17727e+01  2.65054e+00  1.39609e+00
       C  1.38956e+01  4.09855e+00  7.78322e-01
       H  1.55611e+01  4.03792e+00  1.96651e+00
       C  1.38973e+01  5.63326e+00 -1.37165e+00
       H  1.55368e+01  6.76842e+00 -1.82780e+00
       C  9.64264e+00  2.69668e+00 -1.82966e-01
       H  8.01159e+00  1.53160e+00  2.22552e-01
       C  9.64289e+00  4.21173e+00 -2.35035e+00
       H  8.02677e+00  4.20623e+00 -3.60841e+00
       C  1.17656e+01  5.66497e+00 -2.90465e+00
       O  1.17622e+01  7.10935e+00 -5.05528e+00
       H  1.35139e+01  7.71291e+00 -5.33268e+00
