LAMMPS Atom File

  4 atoms
  2 bonds
  1 angles
    0 dihedrals
    0 impropers

  2 atom types
  1 bond types
  1 angle types

  0.0   80.0  xlo xhi
  0.0   80.0  ylo yhi
  0.0   80.0  zlo zhi

Masses

  1   15.9994
  2   1.00794

Atoms

  1    1  1 -0.8472    2.1246   0.0930   2.6000  0  1  0
  2    1  2  0.4236    2.5368   0.7561   2.8993  0  1  0
  3    1  2  0.4236    1.4948   0.5639   1.6568  0  1  0
  4    1  2  0.4236   40.0000  40.0000  40.0000  0  1  0
Bonds

  1   1      1      2
  2   1      1      3

Angles

  1   1      2      1      3
