3
# CELL(abcABC):   25.29166    25.29166    25.29166    90.00000    90.00000    90.00000  Step:           0  Bead:       0 positions{atomic_unit}  cell{atomic_unit}
       O  1.02130e+00 -1.84220e+00 -4.09276e-01
       H  3.47444e-01 -2.37735e+00 -2.03854e+00
       H  7.99951e-02 -3.68232e-01  1.74386e-01
3
# CELL(abcABC):   25.29166    25.29166    25.29166    90.00000    90.00000    90.00000  Step:           5  Bead:       0 positions{atomic_unit}  cell{atomic_unit}
       O  1.06493e+00 -1.80256e+00 -4.41089e-01
       H  3.26184e-01 -2.29290e+00 -2.03693e+00
       H -7.76274e-02 -2.70452e-01  8.79645e-02
3
# CELL(abcABC):   25.29166    25.29166    25.29166    90.00000    90.00000    90.00000  Step:          10  Bead:       0 positions{atomic_unit}  cell{atomic_unit}
       O  1.11290e+00 -1.79599e+00 -4.29091e-01
       H  3.02832e-01 -2.35127e+00 -1.97488e+00
       H -1.38146e-01 -4.46325e-01  1.03014e-01
