3
# CELL(abcABC):   25.29166    25.29166    25.29166    90.00000    90.00000    90.00000  Step:           0  Bead:       0 positions{atomic_unit}  cell{atomic_unit}
       O  1.02130e+00 -1.84220e+00 -4.09276e-01
       H  3.47444e-01 -2.37735e+00 -2.03854e+00
       H  7.99951e-02 -3.68232e-01  1.74386e-01
3
# CELL(abcABC):   25.29166    25.29166    25.29166    90.00000    90.00000    90.00000  Step:           5  Bead:       0 positions{atomic_unit}  cell{atomic_unit}
       O  1.02104e+00 -1.85586e+00 -4.32219e-01
       H  2.88868e-01 -2.46228e+00 -1.90705e+00
       H  7.17503e-02 -2.56133e-01  6.32070e-02
3
# CELL(abcABC):   25.29166    25.29166    25.29166    90.00000    90.00000    90.00000  Step:          10  Bead:       0 positions{atomic_unit}  cell{atomic_unit}
       O  1.03453e+00 -1.80746e+00 -4.58130e-01
       H  2.50347e-01 -2.52376e+00 -1.80248e+00
       H  1.64404e-01 -1.14148e-01 -2.52069e-01
