3
# CELL(abcABC):   25.29166    25.29166    25.29166    90.00000    90.00000    90.00000  Step:           0  Bead:       0 f_centroid{atomic_unit}  cell{atomic_unit}
       O -7.34145e-03  4.55046e-03 -4.38801e-03
       H  1.78151e-03  1.10616e-02  1.67248e-02
       H  5.55994e-03 -1.56120e-02 -1.23368e-02
3
# CELL(abcABC):   25.29166    25.29166    25.29166    90.00000    90.00000    90.00000  Step:          20  Bead:       0 f_centroid{atomic_unit}  cell{atomic_unit}
       O  2.04865e-02  1.00551e-02  5.68341e-02
       H -1.43933e-02 -2.82911e-02 -7.13938e-02
       H -6.09325e-03  1.82360e-02  1.45598e-02
3
# CELL(abcABC):   25.29166    25.29166    25.29166    90.00000    90.00000    90.00000  Step:          40  Bead:       0 f_centroid{atomic_unit}  cell{atomic_unit}
       O -1.09557e-02  2.67334e-02  2.84741e-02
       H -4.25606e-03 -9.31289e-03 -2.86912e-02
       H  1.52117e-02 -1.74205e-02  2.17115e-04
3
# CELL(abcABC):   25.29166    25.29166    25.29166    90.00000    90.00000    90.00000  Step:          60  Bead:       0 f_centroid{atomic_unit}  cell{atomic_unit}
       O  1.12574e-02 -3.23849e-03  2.05735e-02
       H -1.33301e-02  2.38665e-02  2.02790e-02
       H  2.07268e-03 -2.06280e-02 -4.08526e-02
3
# CELL(abcABC):   25.29166    25.29166    25.29166    90.00000    90.00000    90.00000  Step:          80  Bead:       0 f_centroid{atomic_unit}  cell{atomic_unit}
       O  2.84007e-02 -2.16826e-02 -9.32255e-03
       H -7.58183e-03  8.33039e-03  7.00661e-03
       H -2.08188e-02  1.33522e-02  2.31594e-03
3
# CELL(abcABC):   25.29166    25.29166    25.29166    90.00000    90.00000    90.00000  Step:         100  Bead:       0 f_centroid{atomic_unit}  cell{atomic_unit}
       O  2.62025e-02  5.94171e-03  2.12597e-02
       H -1.98991e-02 -1.35334e-02 -3.10173e-02
       H -6.30340e-03  7.59173e-03  9.75759e-03
