1
# CELL(abcABC):  188.97261   188.97261   188.97261    90.00000    90.00000    90.00000  Step:           0  Bead:       0 forces{atomic_unit}  cell{atomic_unit}
       H  0.00000e+00  0.00000e+00  0.00000e+00
1
# CELL(abcABC):  188.97261   188.97261   188.97261    90.00000    90.00000    90.00000  Step:           1  Bead:       0 forces{atomic_unit}  cell{atomic_unit}
       H  4.94896e-04 -1.51145e-04  1.59480e-04
1
# CELL(abcABC):  188.97261   188.97261   188.97261    90.00000    90.00000    90.00000  Step:           2  Bead:       0 forces{atomic_unit}  cell{atomic_unit}
       H  9.56955e-04 -2.76019e-04  3.16133e-04
1
# CELL(abcABC):  188.97261   188.97261   188.97261    90.00000    90.00000    90.00000  Step:           3  Bead:       0 forces{atomic_unit}  cell{atomic_unit}
       H  1.34276e-03 -4.39992e-04  5.48194e-04
1
# CELL(abcABC):  188.97261   188.97261   188.97261    90.00000    90.00000    90.00000  Step:           4  Bead:       0 forces{atomic_unit}  cell{atomic_unit}
       H  1.73655e-03 -6.70760e-04  8.99957e-04
1
# CELL(abcABC):  188.97261   188.97261   188.97261    90.00000    90.00000    90.00000  Step:           5  Bead:       0 forces{atomic_unit}  cell{atomic_unit}
       H  2.11967e-03 -9.46137e-04  1.09345e-03
1
# CELL(abcABC):  188.97261   188.97261   188.97261    90.00000    90.00000    90.00000  Step:           6  Bead:       0 forces{atomic_unit}  cell{atomic_unit}
       H  2.43023e-03 -1.21578e-03  1.34735e-03
1
# CELL(abcABC):  188.97261   188.97261   188.97261    90.00000    90.00000    90.00000  Step:           7  Bead:       0 forces{atomic_unit}  cell{atomic_unit}
       H  2.79635e-03 -1.49551e-03  1.62908e-03
1
# CELL(abcABC):  188.97261   188.97261   188.97261    90.00000    90.00000    90.00000  Step:           8  Bead:       0 forces{atomic_unit}  cell{atomic_unit}
       H  3.08906e-03 -1.75280e-03  1.91565e-03
1
# CELL(abcABC):  188.97261   188.97261   188.97261    90.00000    90.00000    90.00000  Step:           9  Bead:       0 forces{atomic_unit}  cell{atomic_unit}
       H  3.30737e-03 -1.99215e-03  2.22092e-03
