3
# CELL(abcABC):  188.97261   188.97261   188.97261    90.00000    90.00000    90.00000  Step:           0  Bead:       0 x_centroid{angstrom}  cell{atomic_unit}
       O  4.98443e+00  4.98507e+00  4.90665e+00
       H  5.58293e+00  5.53985e+00  5.47085e+00
       H  5.49339e+00  4.07355e+00  5.11317e+00
3
# CELL(abcABC):  188.97261   188.97261   188.97261    90.00000    90.00000    90.00000  Step:          20  Bead:       0 x_centroid{angstrom}  cell{atomic_unit}
       O  5.00172e+00  4.96242e+00  4.91211e+00
       H  5.39937e+00  5.80887e+00  5.01066e+00
       H  5.40244e+00  4.16414e+00  5.48658e+00
3
# CELL(abcABC):  188.97261   188.97261   188.97261    90.00000    90.00000    90.00000  Step:          40  Bead:       0 x_centroid{angstrom}  cell{atomic_unit}
       O  5.00353e+00  4.93666e+00  4.90864e+00
       H  5.30744e+00  5.75003e+00  4.76472e+00
       H  5.46572e+00  4.63178e+00  5.78768e+00
3
# CELL(abcABC):  188.97261   188.97261   188.97261    90.00000    90.00000    90.00000  Step:          60  Bead:       0 x_centroid{angstrom}  cell{atomic_unit}
       O  5.01460e+00  4.92152e+00  4.92471e+00
       H  5.23963e+00  5.66891e+00  4.50275e+00
       H  5.35773e+00  4.95328e+00  5.79456e+00
3
# CELL(abcABC):  188.97261   188.97261   188.97261    90.00000    90.00000    90.00000  Step:          80  Bead:       0 x_centroid{angstrom}  cell{atomic_unit}
       O  5.02716e+00  4.90967e+00  4.94034e+00
       H  5.12470e+00  5.59865e+00  4.30576e+00
       H  5.27344e+00  5.21158e+00  5.74351e+00
3
# CELL(abcABC):  188.97261   188.97261   188.97261    90.00000    90.00000    90.00000  Step:         100  Bead:       0 x_centroid{angstrom}  cell{atomic_unit}
       O  5.03288e+00  4.90322e+00  4.95740e+00
       H  5.09156e+00  5.46892e+00  4.14871e+00
       H  5.21576e+00  5.44377e+00  5.62964e+00
3
# CELL(abcABC):  188.97261   188.97261   188.97261    90.00000    90.00000    90.00000  Step:         120  Bead:       0 x_centroid{angstrom}  cell{atomic_unit}
       O  5.04797e+00  4.90692e+00  4.96690e+00
       H  4.93451e+00  5.25246e+00  4.05486e+00
       H  5.13326e+00  5.60141e+00  5.57275e+00
3
# CELL(abcABC):  188.97261   188.97261   188.97261    90.00000    90.00000    90.00000  Step:         140  Bead:       0 x_centroid{angstrom}  cell{atomic_unit}
       O  5.06270e+00  4.90538e+00  4.97827e+00
       H  4.81293e+00  5.13613e+00  4.05621e+00
       H  5.02097e+00  5.74230e+00  5.39090e+00
3
# CELL(abcABC):  188.97261   188.97261   188.97261    90.00000    90.00000    90.00000  Step:         160  Bead:       0 x_centroid{angstrom}  cell{atomic_unit}
       O  5.07775e+00  4.92327e+00  4.97361e+00
       H  4.68732e+00  4.78377e+00  4.14155e+00
       H  4.90776e+00  5.81060e+00  5.37956e+00
3
# CELL(abcABC):  188.97261   188.97261   188.97261    90.00000    90.00000    90.00000  Step:         180  Bead:       0 x_centroid{angstrom}  cell{atomic_unit}
       O  5.10047e+00  4.92981e+00  4.97864e+00
       H  4.49896e+00  4.65117e+00  4.39020e+00
       H  4.73550e+00  5.83946e+00  5.05104e+00
3
# CELL(abcABC):  188.97261   188.97261   188.97261    90.00000    90.00000    90.00000  Step:         200  Bead:       0 x_centroid{angstrom}  cell{atomic_unit}
       O  5.09479e+00  4.94945e+00  4.96219e+00
       H  4.51651e+00  4.31524e+00  4.68894e+00
       H  4.80802e+00  5.86353e+00  5.01339e+00
3
# CELL(abcABC):  188.97261   188.97261   188.97261    90.00000    90.00000    90.00000  Step:         220  Bead:       0 x_centroid{angstrom}  cell{atomic_unit}
       O  5.11697e+00  4.95681e+00  4.94702e+00
       H  4.40000e+00  4.33851e+00  5.02350e+00
       H  4.57240e+00  5.72351e+00  4.91975e+00
3
# CELL(abcABC):  188.97261   188.97261   188.97261    90.00000    90.00000    90.00000  Step:         240  Bead:       0 x_centroid{angstrom}  cell{atomic_unit}
       O  5.09537e+00  4.96299e+00  4.92783e+00
       H  4.64852e+00  4.16668e+00  5.35546e+00
       H  4.66690e+00  5.79726e+00  4.89231e+00
3
# CELL(abcABC):  188.97261   188.97261   188.97261    90.00000    90.00000    90.00000  Step:         260  Bead:       0 x_centroid{angstrom}  cell{atomic_unit}
       O  5.10253e+00  4.95833e+00  4.89777e+00
       H  4.74455e+00  4.39794e+00  5.65745e+00
       H  4.45714e+00  5.63995e+00  5.06745e+00
3
# CELL(abcABC):  188.97261   188.97261   188.97261    90.00000    90.00000    90.00000  Step:         280  Bead:       0 x_centroid{angstrom}  cell{atomic_unit}
       O  5.07555e+00  4.95921e+00  4.90845e+00
       H  5.24915e+00  4.41328e+00  5.69445e+00
       H  4.38075e+00  5.61066e+00  4.86089e+00
3
# CELL(abcABC):  188.97261   188.97261   188.97261    90.00000    90.00000    90.00000  Step:         300  Bead:       0 x_centroid{angstrom}  cell{atomic_unit}
       O  5.07726e+00  4.94983e+00  4.88609e+00
       H  5.30557e+00  4.75298e+00  5.76595e+00
       H  4.29727e+00  5.41986e+00  5.14442e+00
3
# CELL(abcABC):  188.97261   188.97261   188.97261    90.00000    90.00000    90.00000  Step:         320  Bead:       0 x_centroid{angstrom}  cell{atomic_unit}
       O  5.06382e+00  4.94985e+00  4.90425e+00
       H  5.63530e+00  4.89910e+00  5.61402e+00
       H  4.18077e+00  5.27344e+00  5.00811e+00
3
# CELL(abcABC):  188.97261   188.97261   188.97261    90.00000    90.00000    90.00000  Step:         340  Bead:       0 x_centroid{angstrom}  cell{atomic_unit}
       O  5.06146e+00  4.94062e+00  4.89082e+00
       H  5.59089e+00  5.11800e+00  5.59329e+00
       H  4.26274e+00  5.20095e+00  5.24195e+00
3
# CELL(abcABC):  188.97261   188.97261   188.97261    90.00000    90.00000    90.00000  Step:         360  Bead:       0 x_centroid{angstrom}  cell{atomic_unit}
       O  5.05327e+00  4.94055e+00  4.90117e+00
       H  5.74799e+00  5.26799e+00  5.41980e+00
       H  4.23568e+00  5.05215e+00  5.25122e+00
3
# CELL(abcABC):  188.97261   188.97261   188.97261    90.00000    90.00000    90.00000  Step:         380  Bead:       0 x_centroid{angstrom}  cell{atomic_unit}
       O  5.04821e+00  4.93006e+00  4.89415e+00
       H  5.73659e+00  5.42631e+00  5.33053e+00
       H  4.32730e+00  5.06035e+00  5.45183e+00
3
# CELL(abcABC):  188.97261   188.97261   188.97261    90.00000    90.00000    90.00000  Step:         400  Bead:       0 x_centroid{angstrom}  cell{atomic_unit}
       O  5.04490e+00  4.93505e+00  4.89504e+00
       H  5.74560e+00  5.55499e+00  5.18833e+00
       H  4.37089e+00  4.85241e+00  5.57989e+00
3
# CELL(abcABC):  188.97261   188.97261   188.97261    90.00000    90.00000    90.00000  Step:         420  Bead:       0 x_centroid{angstrom}  cell{atomic_unit}
       O  5.04519e+00  4.93944e+00  4.88987e+00
       H  5.63205e+00  5.63325e+00  5.17960e+00
       H  4.47985e+00  4.70451e+00  5.67071e+00
3
# CELL(abcABC):  188.97261   188.97261   188.97261    90.00000    90.00000    90.00000  Step:         440  Bead:       0 x_centroid{angstrom}  cell{atomic_unit}
       O  5.04656e+00  4.94021e+00  4.88907e+00
       H  5.44826e+00  5.77787e+00  5.16257e+00
       H  4.64190e+00  4.54768e+00  5.70047e+00
3
# CELL(abcABC):  188.97261   188.97261   188.97261    90.00000    90.00000    90.00000  Step:         460  Bead:       0 x_centroid{angstrom}  cell{atomic_unit}
       O  5.04874e+00  4.94400e+00  4.89338e+00
       H  5.20511e+00  5.86096e+00  5.11867e+00
       H  4.85036e+00  4.40430e+00  5.67588e+00
3
# CELL(abcABC):  188.97261   188.97261   188.97261    90.00000    90.00000    90.00000  Step:         480  Bead:       0 x_centroid{angstrom}  cell{atomic_unit}
       O  5.05369e+00  4.94397e+00  4.88968e+00
       H  4.87465e+00  5.81334e+00  5.18867e+00
       H  5.10237e+00  4.45245e+00  5.66469e+00
3
# CELL(abcABC):  188.97261   188.97261   188.97261    90.00000    90.00000    90.00000  Step:         500  Bead:       0 x_centroid{angstrom}  cell{atomic_unit}
       O  5.05851e+00  4.94937e+00  4.89714e+00
       H  4.59487e+00  5.72195e+00  5.13943e+00
       H  5.30554e+00  4.45821e+00  5.59556e+00
3
# CELL(abcABC):  188.97261   188.97261   188.97261    90.00000    90.00000    90.00000  Step:         520  Bead:       0 x_centroid{angstrom}  cell{atomic_unit}
       O  5.06864e+00  4.95562e+00  4.89172e+00
       H  4.32820e+00  5.44477e+00  5.18506e+00
       H  5.41143e+00  4.63606e+00  5.63589e+00
3
# CELL(abcABC):  188.97261   188.97261   188.97261    90.00000    90.00000    90.00000  Step:         540  Bead:       0 x_centroid{angstrom}  cell{atomic_unit}
       O  5.07216e+00  4.97003e+00  4.89804e+00
       H  4.15352e+00  5.11872e+00  5.06717e+00
       H  5.53030e+00  4.73349e+00  5.65350e+00
3
# CELL(abcABC):  188.97261   188.97261   188.97261    90.00000    90.00000    90.00000  Step:         560  Bead:       0 x_centroid{angstrom}  cell{atomic_unit}
       O  5.07407e+00  4.98957e+00  4.89512e+00
       H  4.18828e+00  4.65768e+00  5.01385e+00
       H  5.46519e+00  4.88428e+00  5.75317e+00
3
# CELL(abcABC):  188.97261   188.97261   188.97261    90.00000    90.00000    90.00000  Step:         580  Bead:       0 x_centroid{angstrom}  cell{atomic_unit}
       O  5.06182e+00  4.99843e+00  4.90417e+00
       H  4.41968e+00  4.31221e+00  4.83346e+00
       H  5.42825e+00  5.08918e+00  5.78993e+00
3
# CELL(abcABC):  188.97261   188.97261   188.97261    90.00000    90.00000    90.00000  Step:         600  Bead:       0 x_centroid{angstrom}  cell{atomic_unit}
       O  5.05185e+00  5.00980e+00  4.89695e+00
       H  4.80606e+00  4.09031e+00  4.85315e+00
       H  5.20002e+00  5.13056e+00  5.88476e+00
3
# CELL(abcABC):  188.97261   188.97261   188.97261    90.00000    90.00000    90.00000  Step:         620  Bead:       0 x_centroid{angstrom}  cell{atomic_unit}
       O  5.04227e+00  5.00185e+00  4.90558e+00
       H  5.20521e+00  4.06834e+00  4.77024e+00
       H  4.95305e+00  5.27878e+00  5.83069e+00
3
# CELL(abcABC):  188.97261   188.97261   188.97261    90.00000    90.00000    90.00000  Step:         640  Bead:       0 x_centroid{angstrom}  cell{atomic_unit}
       O  5.02830e+00  5.00172e+00  4.89515e+00
       H  5.61069e+00  4.22788e+00  4.95573e+00
       H  4.76925e+00  5.12119e+00  5.81086e+00
3
# CELL(abcABC):  188.97261   188.97261   188.97261    90.00000    90.00000    90.00000  Step:         660  Bead:       0 x_centroid{angstrom}  cell{atomic_unit}
       O  5.02548e+00  4.98135e+00  4.89821e+00
       H  5.91022e+00  4.62866e+00  5.01554e+00
       H  4.51453e+00  5.04385e+00  5.70245e+00
3
# CELL(abcABC):  188.97261   188.97261   188.97261    90.00000    90.00000    90.00000  Step:         680  Bead:       0 x_centroid{angstrom}  cell{atomic_unit}
       O  5.02948e+00  4.95288e+00  4.88348e+00
       H  5.88335e+00  5.13155e+00  5.27557e+00
       H  4.47788e+00  4.99291e+00  5.67613e+00
3
# CELL(abcABC):  188.97261   188.97261   188.97261    90.00000    90.00000    90.00000  Step:         700  Bead:       0 x_centroid{angstrom}  cell{atomic_unit}
       O  5.05473e+00  4.93278e+00  4.90159e+00
       H  5.66539e+00  5.59223e+00  5.19402e+00
       H  4.29504e+00  4.85128e+00  5.47030e+00
3
# CELL(abcABC):  188.97261   188.97261   188.97261    90.00000    90.00000    90.00000  Step:         720  Bead:       0 x_centroid{angstrom}  cell{atomic_unit}
       O  5.08833e+00  4.91873e+00  4.92109e+00
       H  5.22358e+00  5.82869e+00  5.12925e+00
       H  4.20356e+00  4.83780e+00  5.22546e+00
3
# CELL(abcABC):  188.97261   188.97261   188.97261    90.00000    90.00000    90.00000  Step:         740  Bead:       0 x_centroid{angstrom}  cell{atomic_unit}
       O  5.09660e+00  4.93705e+00  4.95494e+00
       H  5.03336e+00  5.88174e+00  4.97112e+00
       H  4.26246e+00  4.49395e+00  4.84640e+00
3
# CELL(abcABC):  188.97261   188.97261   188.97261    90.00000    90.00000    90.00000  Step:         760  Bead:       0 x_centroid{angstrom}  cell{atomic_unit}
       O  5.10075e+00  4.94986e+00  4.98886e+00
       H  4.71498e+00  5.79709e+00  4.79578e+00
       H  4.51503e+00  4.37516e+00  4.48320e+00
3
# CELL(abcABC):  188.97261   188.97261   188.97261    90.00000    90.00000    90.00000  Step:         780  Bead:       0 x_centroid{angstrom}  cell{atomic_unit}
       O  5.07922e+00  4.96138e+00  4.99631e+00
       H  4.59519e+00  5.74858e+00  4.79803e+00
       H  4.97655e+00  4.24087e+00  4.36268e+00
3
# CELL(abcABC):  188.97261   188.97261   188.97261    90.00000    90.00000    90.00000  Step:         800  Bead:       0 x_centroid{angstrom}  cell{atomic_unit}
       O  5.05419e+00  4.95574e+00  5.01871e+00
       H  4.58536e+00  5.62414e+00  4.56232e+00
       H  5.38369e+00  4.45488e+00  4.24288e+00
3
# CELL(abcABC):  188.97261   188.97261   188.97261    90.00000    90.00000    90.00000  Step:         820  Bead:       0 x_centroid{angstrom}  cell{atomic_unit}
       O  5.03755e+00  4.95395e+00  5.00450e+00
       H  4.41075e+00  5.46607e+00  4.55253e+00
       H  5.82242e+00  4.64130e+00  4.47827e+00
3
# CELL(abcABC):  188.97261   188.97261   188.97261    90.00000    90.00000    90.00000  Step:         840  Bead:       0 x_centroid{angstrom}  cell{atomic_unit}
       O  5.02495e+00  4.93967e+00  5.00953e+00
       H  4.50456e+00  5.32991e+00  4.34355e+00
       H  5.92854e+00  5.00413e+00  4.60738e+00
3
# CELL(abcABC):  188.97261   188.97261   188.97261    90.00000    90.00000    90.00000  Step:         860  Bead:       0 x_centroid{angstrom}  cell{atomic_unit}
       O  5.02567e+00  4.93882e+00  4.99863e+00
       H  4.50858e+00  5.06517e+00  4.18056e+00
       H  5.91310e+00  5.28246e+00  4.94340e+00
3
# CELL(abcABC):  188.97261   188.97261   188.97261    90.00000    90.00000    90.00000  Step:         880  Bead:       0 x_centroid{angstrom}  cell{atomic_unit}
       O  5.01946e+00  4.93250e+00  4.99979e+00
       H  4.72408e+00  4.94753e+00  4.07830e+00
       H  5.79623e+00  5.50037e+00  5.02722e+00
3
# CELL(abcABC):  188.97261   188.97261   188.97261    90.00000    90.00000    90.00000  Step:         900  Bead:       0 x_centroid{angstrom}  cell{atomic_unit}
       O  5.01574e+00  4.93233e+00  4.99291e+00
       H  5.00008e+00  4.74364e+00  4.05885e+00
       H  5.57922e+00  5.70696e+00  5.15597e+00
3
# CELL(abcABC):  188.97261   188.97261   188.97261    90.00000    90.00000    90.00000  Step:         920  Bead:       0 x_centroid{angstrom}  cell{atomic_unit}
       O  5.01555e+00  4.92765e+00  4.98926e+00
       H  5.28063e+00  4.68566e+00  4.10512e+00
       H  5.30180e+00  5.83919e+00  5.16757e+00
3
# CELL(abcABC):  188.97261   188.97261   188.97261    90.00000    90.00000    90.00000  Step:         940  Bead:       0 x_centroid{angstrom}  cell{atomic_unit}
       O  5.01629e+00  4.92142e+00  4.98449e+00
       H  5.63452e+00  4.72920e+00  4.32225e+00
       H  4.93613e+00  5.89461e+00  5.02607e+00
3
# CELL(abcABC):  188.97261   188.97261   188.97261    90.00000    90.00000    90.00000  Step:         960  Bead:       0 x_centroid{angstrom}  cell{atomic_unit}
       O  5.02211e+00  4.92127e+00  4.97969e+00
       H  5.84028e+00  4.82592e+00  4.57283e+00
       H  4.63802e+00  5.80021e+00  4.85171e+00
3
# CELL(abcABC):  188.97261   188.97261   188.97261    90.00000    90.00000    90.00000  Step:         980  Bead:       0 x_centroid{angstrom}  cell{atomic_unit}
       O  5.02232e+00  4.91305e+00  4.97956e+00
       H  5.92021e+00  5.12358e+00  4.86338e+00
       H  4.55462e+00  5.63311e+00  4.56322e+00
3
# CELL(abcABC):  188.97261   188.97261   188.97261    90.00000    90.00000    90.00000  Step:        1000  Bead:       0 x_centroid{angstrom}  cell{atomic_unit}
       O  5.03379e+00  4.90968e+00  4.96405e+00
       H  5.84638e+00  5.38058e+00  5.20493e+00
       H  4.44645e+00  5.42947e+00  4.46791e+00
3
# CELL(abcABC):  188.97261   188.97261   188.97261    90.00000    90.00000    90.00000  Step:        1020  Bead:       0 x_centroid{angstrom}  cell{atomic_unit}
       O  5.06448e+00  4.89840e+00  4.95109e+00
       H  5.33913e+00  5.68296e+00  5.49603e+00
       H  4.46660e+00  5.30614e+00  4.38256e+00
3
# CELL(abcABC):  188.97261   188.97261   188.97261    90.00000    90.00000    90.00000  Step:        1040  Bead:       0 x_centroid{angstrom}  cell{atomic_unit}
       O  5.09830e+00  4.93862e+00  4.94366e+00
       H  4.77729e+00  5.40986e+00  5.72384e+00
       H  4.49157e+00  4.94095e+00  4.27272e+00
3
# CELL(abcABC):  188.97261   188.97261   188.97261    90.00000    90.00000    90.00000  Step:        1060  Bead:       0 x_centroid{angstrom}  cell{atomic_unit}
       O  5.11225e+00  4.98114e+00  4.95670e+00
       H  4.41869e+00  5.02300e+00  5.57930e+00
       H  4.62873e+00  4.65287e+00  4.21024e+00
3
# CELL(abcABC):  188.97261   188.97261   188.97261    90.00000    90.00000    90.00000  Step:        1080  Bead:       0 x_centroid{angstrom}  cell{atomic_unit}
       O  5.07862e+00  5.01237e+00  4.96075e+00
       H  4.40196e+00  4.76335e+00  5.53340e+00
       H  5.17928e+00  4.41666e+00  4.19181e+00
3
# CELL(abcABC):  188.97261   188.97261   188.97261    90.00000    90.00000    90.00000  Step:        1100  Bead:       0 x_centroid{angstrom}  cell{atomic_unit}
       O  5.05041e+00  5.03355e+00  4.95293e+00
       H  4.46762e+00  4.48742e+00  5.38811e+00
       H  5.56145e+00  4.35650e+00  4.46133e+00
3
# CELL(abcABC):  188.97261   188.97261   188.97261    90.00000    90.00000    90.00000  Step:        1120  Bead:       0 x_centroid{angstrom}  cell{atomic_unit}
       O  5.03009e+00  5.01731e+00  4.93499e+00
       H  4.43531e+00  4.42883e+00  5.35521e+00
       H  5.91628e+00  4.67289e+00  4.77893e+00
3
# CELL(abcABC):  188.97261   188.97261   188.97261    90.00000    90.00000    90.00000  Step:        1140  Bead:       0 x_centroid{angstrom}  cell{atomic_unit}
       O  5.01919e+00  5.01922e+00  4.91960e+00
       H  4.61609e+00  4.20394e+00  5.20018e+00
       H  5.90854e+00  4.86746e+00  5.17821e+00
3
# CELL(abcABC):  188.97261   188.97261   188.97261    90.00000    90.00000    90.00000  Step:        1160  Bead:       0 x_centroid{angstrom}  cell{atomic_unit}
       O  5.02412e+00  5.00530e+00  4.91796e+00
       H  4.66054e+00  4.11173e+00  4.97782e+00
       H  5.78571e+00  5.18050e+00  5.42664e+00
3
# CELL(abcABC):  188.97261   188.97261   188.97261    90.00000    90.00000    90.00000  Step:        1180  Bead:       0 x_centroid{angstrom}  cell{atomic_unit}
       O  5.02490e+00  5.00547e+00  4.90065e+00
       H  4.96408e+00  4.04542e+00  4.97906e+00
       H  5.46989e+00  5.24424e+00  5.70012e+00
3
# CELL(abcABC):  188.97261   188.97261   188.97261    90.00000    90.00000    90.00000  Step:        1200  Bead:       0 x_centroid{angstrom}  cell{atomic_unit}
       O  5.03866e+00  4.99623e+00  4.90201e+00
       H  5.12575e+00  4.06576e+00  4.88277e+00
       H  5.08979e+00  5.37045e+00  5.77481e+00
3
# CELL(abcABC):  188.97261   188.97261   188.97261    90.00000    90.00000    90.00000  Step:        1220  Bead:       0 x_centroid{angstrom}  cell{atomic_unit}
       O  5.05312e+00  5.00314e+00  4.89527e+00
       H  5.26812e+00  4.11950e+00  4.99508e+00
       H  4.71788e+00  5.20705e+00  5.76946e+00
3
# CELL(abcABC):  188.97261   188.97261   188.97261    90.00000    90.00000    90.00000  Step:        1240  Bead:       0 x_centroid{angstrom}  cell{atomic_unit}
       O  5.06333e+00  5.00224e+00  4.90968e+00
       H  5.42861e+00  4.16864e+00  4.93170e+00
       H  4.39527e+00  5.17229e+00  5.60419e+00
3
# CELL(abcABC):  188.97261   188.97261   188.97261    90.00000    90.00000    90.00000  Step:        1260  Bead:       0 x_centroid{angstrom}  cell{atomic_unit}
       O  5.07057e+00  5.02024e+00  4.91819e+00
       H  5.49136e+00  4.19060e+00  5.02448e+00
       H  4.21764e+00  4.86460e+00  5.37637e+00
3
# CELL(abcABC):  188.97261   188.97261   188.97261    90.00000    90.00000    90.00000  Step:        1280  Bead:       0 x_centroid{angstrom}  cell{atomic_unit}
       O  5.06524e+00  5.02184e+00  4.94766e+00
       H  5.66746e+00  4.30083e+00  4.96182e+00
       H  4.12616e+00  4.72889e+00  4.97115e+00
3
# CELL(abcABC):  188.97261   188.97261   188.97261    90.00000    90.00000    90.00000  Step:        1300  Bead:       0 x_centroid{angstrom}  cell{atomic_unit}
       O  5.04838e+00  5.02833e+00  4.97825e+00
       H  5.73317e+00  4.39379e+00  4.88483e+00
       H  4.32799e+00  4.53297e+00  4.56264e+00
3
# CELL(abcABC):  188.97261   188.97261   188.97261    90.00000    90.00000    90.00000  Step:        1320  Bead:       0 x_centroid{angstrom}  cell{atomic_unit}
       O  5.02451e+00  5.00451e+00  4.98659e+00
       H  5.93509e+00  4.67999e+00  4.99392e+00
       H  4.50510e+00  4.62479e+00  4.32118e+00
3
# CELL(abcABC):  188.97261   188.97261   188.97261    90.00000    90.00000    90.00000  Step:        1340  Bead:       0 x_centroid{angstrom}  cell{atomic_unit}
       O  5.00070e+00  4.98399e+00  4.99646e+00
       H  5.98439e+00  4.94525e+00  5.01276e+00
       H  4.83368e+00  4.68529e+00  4.14564e+00
3
# CELL(abcABC):  188.97261   188.97261   188.97261    90.00000    90.00000    90.00000  Step:        1360  Bead:       0 x_centroid{angstrom}  cell{atomic_unit}
       O  5.00265e+00  4.95499e+00  4.98798e+00
       H  5.86278e+00  5.31635e+00  5.20861e+00
       H  4.92442e+00  4.77453e+00  4.08439e+00
3
# CELL(abcABC):  188.97261   188.97261   188.97261    90.00000    90.00000    90.00000  Step:        1380  Bead:       0 x_centroid{angstrom}  cell{atomic_unit}
       O  5.01013e+00  4.92885e+00  4.98990e+00
       H  5.57912e+00  5.61694e+00  5.23163e+00
       H  5.08919e+00  4.88894e+00  4.03094e+00
3
# CELL(abcABC):  188.97261   188.97261   188.97261    90.00000    90.00000    90.00000  Step:        1400  Bead:       0 x_centroid{angstrom}  cell{atomic_unit}
       O  5.02554e+00  4.92074e+00  4.98806e+00
       H  5.23971e+00  5.76516e+00  5.28268e+00
       H  5.18410e+00  4.86932e+00  4.00910e+00
3
# CELL(abcABC):  188.97261   188.97261   188.97261    90.00000    90.00000    90.00000  Step:        1420  Bead:       0 x_centroid{angstrom}  cell{atomic_unit}
       O  5.04476e+00  4.91757e+00  4.99211e+00
       H  4.87604e+00  5.78606e+00  5.19729e+00
       H  5.24269e+00  4.89877e+00  4.03016e+00
3
# CELL(abcABC):  188.97261   188.97261   188.97261    90.00000    90.00000    90.00000  Step:        1440  Bead:       0 x_centroid{angstrom}  cell{atomic_unit}
       O  5.05913e+00  4.92108e+00  4.99338e+00
       H  4.56003e+00  5.71547e+00  5.10434e+00
       H  5.33054e+00  4.91362e+00  4.10290e+00
3
# CELL(abcABC):  188.97261   188.97261   188.97261    90.00000    90.00000    90.00000  Step:        1460  Bead:       0 x_centroid{angstrom}  cell{atomic_unit}
       O  5.07013e+00  4.93185e+00  4.99237e+00
       H  4.30909e+00  5.54895e+00  5.07844e+00
       H  5.40688e+00  4.90922e+00  4.14494e+00
3
# CELL(abcABC):  188.97261   188.97261   188.97261    90.00000    90.00000    90.00000  Step:        1480  Bead:       0 x_centroid{angstrom}  cell{atomic_unit}
       O  5.07416e+00  4.93122e+00  4.99791e+00
       H  4.25298e+00  5.42352e+00  4.94894e+00
       H  5.39911e+00  5.04461e+00  4.18643e+00
3
# CELL(abcABC):  188.97261   188.97261   188.97261    90.00000    90.00000    90.00000  Step:        1500  Bead:       0 x_centroid{angstrom}  cell{atomic_unit}
       O  5.07296e+00  4.93678e+00  4.99059e+00
       H  4.18272e+00  5.26464e+00  5.06026e+00
       H  5.48833e+00  5.11529e+00  4.19127e+00
3
# CELL(abcABC):  188.97261   188.97261   188.97261    90.00000    90.00000    90.00000  Step:        1520  Bead:       0 x_centroid{angstrom}  cell{atomic_unit}
       O  5.08197e+00  4.93364e+00  4.99934e+00
       H  4.16274e+00  5.11157e+00  4.93387e+00
       H  5.36538e+00  5.31826e+00  4.17886e+00
3
# CELL(abcABC):  188.97261   188.97261   188.97261    90.00000    90.00000    90.00000  Step:        1540  Bead:       0 x_centroid{angstrom}  cell{atomic_unit}
       O  5.07676e+00  4.94065e+00  4.99046e+00
       H  4.16581e+00  4.82876e+00  5.01180e+00
       H  5.44491e+00  5.48983e+00  4.24185e+00
3
# CELL(abcABC):  188.97261   188.97261   188.97261    90.00000    90.00000    90.00000  Step:        1560  Bead:       0 x_centroid{angstrom}  cell{atomic_unit}
       O  5.09060e+00  4.93511e+00  4.99634e+00
       H  4.18305e+00  4.75374e+00  4.86931e+00
       H  5.20796e+00  5.65270e+00  4.29095e+00
3
# CELL(abcABC):  188.97261   188.97261   188.97261    90.00000    90.00000    90.00000  Step:        1580  Bead:       0 x_centroid{angstrom}  cell{atomic_unit}
       O  5.08992e+00  4.94365e+00  4.98017e+00
       H  4.23834e+00  4.49943e+00  4.91597e+00
       H  5.16346e+00  5.77143e+00  4.50101e+00
3
# CELL(abcABC):  188.97261   188.97261   188.97261    90.00000    90.00000    90.00000  Step:        1600  Bead:       0 x_centroid{angstrom}  cell{atomic_unit}
       O  5.10386e+00  4.94180e+00  4.97847e+00
       H  4.26708e+00  4.50140e+00  4.82186e+00
       H  4.91346e+00  5.79883e+00  4.62215e+00
3
# CELL(abcABC):  188.97261   188.97261   188.97261    90.00000    90.00000    90.00000  Step:        1620  Bead:       0 x_centroid{angstrom}  cell{atomic_unit}
       O  5.09950e+00  4.94810e+00  4.96805e+00
       H  4.34317e+00  4.35407e+00  4.83862e+00
       H  4.90659e+00  5.84620e+00  4.77076e+00
3
# CELL(abcABC):  188.97261   188.97261   188.97261    90.00000    90.00000    90.00000  Step:        1640  Bead:       0 x_centroid{angstrom}  cell{atomic_unit}
       O  5.10783e+00  4.94893e+00  4.96146e+00
       H  4.35697e+00  4.38227e+00  4.82542e+00
       H  4.76062e+00  5.80478e+00  4.88857e+00
3
# CELL(abcABC):  188.97261   188.97261   188.97261    90.00000    90.00000    90.00000  Step:        1660  Bead:       0 x_centroid{angstrom}  cell{atomic_unit}
       O  5.10478e+00  4.95157e+00  4.95618e+00
       H  4.42712e+00  4.33947e+00  4.78665e+00
       H  4.73887e+00  5.80565e+00  5.01113e+00
3
# CELL(abcABC):  188.97261   188.97261   188.97261    90.00000    90.00000    90.00000  Step:        1680  Bead:       0 x_centroid{angstrom}  cell{atomic_unit}
       O  5.10859e+00  4.95541e+00  4.94171e+00
       H  4.42943e+00  4.31052e+00  4.83366e+00
       H  4.67604e+00  5.77367e+00  5.19378e+00
3
# CELL(abcABC):  188.97261   188.97261   188.97261    90.00000    90.00000    90.00000  Step:        1700  Bead:       0 x_centroid{angstrom}  cell{atomic_unit}
       O  5.10492e+00  4.96707e+00  4.92529e+00
       H  4.48280e+00  4.23213e+00  4.86320e+00
       H  4.68089e+00  5.66704e+00  5.42491e+00
3
# CELL(abcABC):  188.97261   188.97261   188.97261    90.00000    90.00000    90.00000  Step:        1720  Bead:       0 x_centroid{angstrom}  cell{atomic_unit}
       O  5.08670e+00  4.99065e+00  4.90633e+00
       H  4.69894e+00  4.11493e+00  4.90732e+00
       H  4.75398e+00  5.40996e+00  5.68172e+00
3
# CELL(abcABC):  188.97261   188.97261   188.97261    90.00000    90.00000    90.00000  Step:        1740  Bead:       0 x_centroid{angstrom}  cell{atomic_unit}
       O  5.05974e+00  5.00684e+00  4.90220e+00
       H  4.99972e+00  4.05818e+00  4.85375e+00
       H  4.88120e+00  5.20970e+00  5.80078e+00
3
# CELL(abcABC):  188.97261   188.97261   188.97261    90.00000    90.00000    90.00000  Step:        1760  Bead:       0 x_centroid{angstrom}  cell{atomic_unit}
       O  5.02636e+00  5.00466e+00  4.90507e+00
       H  5.34956e+00  4.13841e+00  4.74402e+00
       H  5.06113e+00  5.16411e+00  5.86500e+00
3
# CELL(abcABC):  188.97261   188.97261   188.97261    90.00000    90.00000    90.00000  Step:        1780  Bead:       0 x_centroid{angstrom}  cell{atomic_unit}
       O  5.00289e+00  4.99138e+00  4.91040e+00
       H  5.60995e+00  4.37086e+00  4.65946e+00
       H  5.17329e+00  5.14232e+00  5.86500e+00
3
# CELL(abcABC):  188.97261   188.97261   188.97261    90.00000    90.00000    90.00000  Step:        1800  Bead:       0 x_centroid{angstrom}  cell{atomic_unit}
       O  4.99043e+00  4.96940e+00  4.92364e+00
       H  5.74945e+00  4.65157e+00  4.50519e+00
       H  5.23165e+00  5.21065e+00  5.80904e+00
3
# CELL(abcABC):  188.97261   188.97261   188.97261    90.00000    90.00000    90.00000  Step:        1820  Bead:       0 x_centroid{angstrom}  cell{atomic_unit}
       O  4.98818e+00  4.95379e+00  4.93339e+00
       H  5.77273e+00  4.94932e+00  4.39284e+00
       H  5.24413e+00  5.16056e+00  5.76672e+00
3
# CELL(abcABC):  188.97261   188.97261   188.97261    90.00000    90.00000    90.00000  Step:        1840  Bead:       0 x_centroid{angstrom}  cell{atomic_unit}
       O  4.99562e+00  4.93146e+00  4.93593e+00
       H  5.67303e+00  5.26209e+00  4.33135e+00
       H  5.22567e+00  5.20238e+00  5.78785e+00
3
# CELL(abcABC):  188.97261   188.97261   188.97261    90.00000    90.00000    90.00000  Step:        1860  Bead:       0 x_centroid{angstrom}  cell{atomic_unit}
       O  5.00469e+00  4.91449e+00  4.93557e+00
       H  5.51601e+00  5.48852e+00  4.29570e+00
       H  5.23870e+00  5.24524e+00  5.82916e+00
3
# CELL(abcABC):  188.97261   188.97261   188.97261    90.00000    90.00000    90.00000  Step:        1880  Bead:       0 x_centroid{angstrom}  cell{atomic_unit}
       O  5.01999e+00  4.91050e+00  4.93738e+00
       H  5.26096e+00  5.53961e+00  4.26208e+00
       H  5.25086e+00  5.25750e+00  5.83413e+00
3
# CELL(abcABC):  188.97261   188.97261   188.97261    90.00000    90.00000    90.00000  Step:        1900  Bead:       0 x_centroid{angstrom}  cell{atomic_unit}
       O  5.03666e+00  4.90093e+00  4.93949e+00
       H  4.95165e+00  5.55999e+00  4.29842e+00
       H  5.29562e+00  5.38903e+00  5.76433e+00
3
# CELL(abcABC):  188.97261   188.97261   188.97261    90.00000    90.00000    90.00000  Step:        1920  Bead:       0 x_centroid{angstrom}  cell{atomic_unit}
       O  5.05111e+00  4.90802e+00  4.94583e+00
       H  4.65962e+00  5.38325e+00  4.28368e+00
       H  5.35822e+00  5.45327e+00  5.67842e+00
3
# CELL(abcABC):  188.97261   188.97261   188.97261    90.00000    90.00000    90.00000  Step:        1940  Bead:       0 x_centroid{angstrom}  cell{atomic_unit}
       O  5.07324e+00  4.90484e+00  4.94944e+00