3
# CELL(abcABC):  188.97261   188.97261   188.97261    90.00000    90.00000    90.00000  Step:           0  Bead:       0 x_centroid{angstrom}  cell{atomic_unit}
       O  4.98443e+00  4.98507e+00  4.90665e+00
       H  5.58293e+00  5.53985e+00  5.47085e+00
       H  5.49339e+00  4.07355e+00  5.11317e+00
3
# CELL(abcABC):  188.97261   188.97261   188.97261    90.00000    90.00000    90.00000  Step:          20  Bead:       0 x_centroid{angstrom}  cell{atomic_unit}
       O  5.00676e+00  4.96512e+00  4.90276e+00
       H  5.39410e+00  5.77967e+00  5.20930e+00
       H  5.32778e+00  4.15041e+00  5.43638e+00
3
# CELL(abcABC):  188.97261   188.97261   188.97261    90.00000    90.00000    90.00000  Step:          40  Bead:       0 x_centroid{angstrom}  cell{atomic_unit}
       O  5.02195e+00  4.94821e+00  4.88983e+00
       H  5.28220e+00  5.76892e+00  5.11427e+00
       H  5.19859e+00  4.42963e+00  5.73668e+00
3
# CELL(abcABC):  188.97261   188.97261   188.97261    90.00000    90.00000    90.00000  Step:          60  Bead:       0 x_centroid{angstrom}  cell{atomic_unit}
       O  5.03994e+00  4.92697e+00  4.90335e+00
       H  5.24446e+00  5.83404e+00  4.81112e+00
       H  4.95079e+00  4.70169e+00  5.82524e+00
3
# CELL(abcABC):  188.97261   188.97261   188.97261    90.00000    90.00000    90.00000  Step:          80  Bead:       0 x_centroid{angstrom}  cell{atomic_unit}
       O  5.06263e+00  4.91170e+00  4.92267e+00
       H  5.06829e+00  5.79387e+00  4.54227e+00
       H  4.76671e+00  4.98413e+00  5.78742e+00
3
# CELL(abcABC):  188.97261   188.97261   188.97261    90.00000    90.00000    90.00000  Step:         100  Bead:       0 x_centroid{angstrom}  cell{atomic_unit}
       O  5.07835e+00  4.91061e+00  4.94488e+00
       H  4.88399e+00  5.58231e+00  4.27120e+00
       H  4.70157e+00  5.21300e+00  5.70599e+00
3
# CELL(abcABC):  188.97261   188.97261   188.97261    90.00000    90.00000    90.00000  Step:         120  Bead:       0 x_centroid{angstrom}  cell{atomic_unit}
       O  5.08937e+00  4.92732e+00  4.96066e+00
       H  4.71205e+00  5.12274e+00  4.07979e+00
       H  4.69856e+00  5.40745e+00  5.64690e+00
3
# CELL(abcABC):  188.97261   188.97261   188.97261    90.00000    90.00000    90.00000  Step:         140  Bead:       0 x_centroid{angstrom}  cell{atomic_unit}
       O  5.10153e+00  4.93271e+00  4.97567e+00
       H  4.56628e+00  4.75289e+00  4.19288e+00
       H  4.65135e+00  5.69168e+00  5.29556e+00
3
# CELL(abcABC):  188.97261   188.97261   188.97261    90.00000    90.00000    90.00000  Step:         160  Bead:       0 x_centroid{angstrom}  cell{atomic_unit}
       O  5.08466e+00  4.94528e+00  4.98536e+00
       H  4.68153e+00  4.36223e+00  4.33183e+00
       H  4.80378e+00  5.88276e+00  5.00277e+00
3
# CELL(abcABC):  188.97261   188.97261   188.97261    90.00000    90.00000    90.00000  Step:         180  Bead:       0 x_centroid{angstrom}  cell{atomic_unit}
       O  5.07900e+00  4.95337e+00  5.00917e+00
       H  4.61275e+00  4.33881e+00  4.47573e+00
       H  4.96238e+00  5.77775e+00  4.48089e+00
3
# CELL(abcABC):  188.97261   188.97261   188.97261    90.00000    90.00000    90.00000  Step:         200  Bead:       0 x_centroid{angstrom}  cell{atomic_unit}
       O  5.06427e+00  4.97763e+00  5.00308e+00
       H  4.54122e+00  4.21745e+00  4.81523e+00
       H  5.26774e+00  5.51408e+00  4.23800e+00
3
# CELL(abcABC):  188.97261   188.97261   188.97261    90.00000    90.00000    90.00000  Step:         220  Bead:       0 x_centroid{angstrom}  cell{atomic_unit}
       O  5.06505e+00  5.00304e+00  5.00110e+00
       H  4.41088e+00  4.30577e+00  4.97944e+00
       H  5.38578e+00  5.02237e+00  4.10533e+00
3
# CELL(abcABC):  188.97261   188.97261   188.97261    90.00000    90.00000    90.00000  Step:         240  Bead:       0 x_centroid{angstrom}  cell{atomic_unit}
       O  5.05912e+00  5.01835e+00  4.97519e+00
       H  4.33985e+00  4.42458e+00  5.23221e+00
       H  5.55091e+00  4.66053e+00  4.26383e+00
3
# CELL(abcABC):  188.97261   188.97261   188.97261    90.00000    90.00000    90.00000  Step:         260  Bead:       0 x_centroid{angstrom}  cell{atomic_unit}
       O  5.04994e+00  5.03053e+00  4.95165e+00
       H  4.37122e+00  4.47805e+00  5.28664e+00
       H  5.66524e+00  4.41384e+00  4.58305e+00
3
# CELL(abcABC):  188.97261   188.97261   188.97261    90.00000    90.00000    90.00000  Step:         280  Bead:       0 x_centroid{angstrom}  cell{atomic_unit}
       O  5.04594e+00  5.02350e+00  4.92263e+00
       H  4.31888e+00  4.61760e+00  5.36576e+00
       H  5.78115e+00  4.38587e+00  4.96455e+00
3
# CELL(abcABC):  188.97261   188.97261   188.97261    90.00000    90.00000    90.00000  Step:         300  Bead:       0 x_centroid{angstrom}  cell{atomic_unit}
       O  5.05244e+00  5.00391e+00  4.89901e+00
       H  4.28074e+00  4.91592e+00  5.41875e+00
       H  5.71612e+00  4.39851e+00  5.28645e+00
3
# CELL(abcABC):  188.97261   188.97261   188.97261    90.00000    90.00000    90.00000  Step:         320  Bead:       0 x_centroid{angstrom}  cell{atomic_unit}
       O  5.06474e+00  4.98305e+00  4.88813e+00
       H  4.26679e+00  5.21477e+00  5.33660e+00
       H  5.53475e+00  4.43066e+00  5.54136e+00
3
# CELL(abcABC):  188.97261   188.97261   188.97261    90.00000    90.00000    90.00000  Step:         340  Bead:       0 x_centroid{angstrom}  cell{atomic_unit}
       O  5.07274e+00  4.95869e+00  4.89659e+00
       H  4.33675e+00  5.53004e+00  5.04070e+00
       H  5.33778e+00  4.50212e+00  5.70301e+00
3
# CELL(abcABC):  188.97261   188.97261   188.97261    90.00000    90.00000    90.00000  Step:         360  Bead:       0 x_centroid{angstrom}  cell{atomic_unit}
       O  5.09062e+00  4.94167e+00  4.90506e+00
       H  4.52109e+00  5.73295e+00  4.85576e+00
       H  4.86973e+00  4.56944e+00  5.75343e+00
3
# CELL(abcABC):  188.97261   188.97261   188.97261    90.00000    90.00000    90.00000  Step:         380  Bead:       0 x_centroid{angstrom}  cell{atomic_unit}
       O  5.10470e+00  4.94589e+00  4.93722e+00
       H  4.68100e+00  5.66369e+00  4.52730e+00
       H  4.48630e+00  4.57163e+00  5.57148e+00
3
# CELL(abcABC):  188.97261   188.97261   188.97261    90.00000    90.00000    90.00000  Step:         400  Bead:       0 x_centroid{angstrom}  cell{atomic_unit}
       O  5.10603e+00  4.94793e+00  4.97022e+00
       H  4.88417e+00  5.60082e+00  4.34077e+00
       H  4.26203e+00  4.60219e+00  5.23418e+00
3
# CELL(abcABC):  188.97261   188.97261   188.97261    90.00000    90.00000    90.00000  Step:         420  Bead:       0 x_centroid{angstrom}  cell{atomic_unit}
       O  5.07962e+00  4.96139e+00  4.99875e+00
       H  5.31262e+00  5.42399e+00  4.20168e+00
       H  4.25278e+00  4.56525e+00  4.92030e+00
3
# CELL(abcABC):  188.97261   188.97261   188.97261    90.00000    90.00000    90.00000  Step:         440  Bead:       0 x_centroid{angstrom}  cell{atomic_unit}
       O  5.05633e+00  4.97991e+00  5.01300e+00
       H  5.64089e+00  5.02789e+00  4.21592e+00
       H  4.29408e+00  4.66741e+00  4.67992e+00
3
# CELL(abcABC):  188.97261   188.97261   188.97261    90.00000    90.00000    90.00000  Step:         460  Bead:       0 x_centroid{angstrom}  cell{atomic_unit}
       O  5.03904e+00  4.99229e+00  5.00027e+00
       H  5.89984e+00  4.79639e+00  4.62577e+00
       H  4.30972e+00  4.70245e+00  4.47208e+00
3
# CELL(abcABC):  188.97261   188.97261   188.97261    90.00000    90.00000    90.00000  Step:         480  Bead:       0 x_centroid{angstrom}  cell{atomic_unit}
       O  5.01896e+00  4.99160e+00  5.00356e+00
       H  5.85798e+00  4.65142e+00  4.93262e+00
       H  4.67029e+00  4.85834e+00  4.11306e+00
3
# CELL(abcABC):  188.97261   188.97261   188.97261    90.00000    90.00000    90.00000  Step:         500  Bead:       0 x_centroid{angstrom}  cell{atomic_unit}
       O  5.00278e+00  4.97723e+00  4.98749e+00
       H  5.78768e+00  4.60796e+00  5.28912e+00
       H  4.99734e+00  5.12988e+00  4.01162e+00
3
# CELL(abcABC):  188.97261   188.97261   188.97261    90.00000    90.00000    90.00000  Step:         520  Bead:       0 x_centroid{angstrom}  cell{atomic_unit}
       O  4.98236e+00  4.96964e+00  4.96641e+00
       H  5.67404e+00  4.48409e+00  5.44171e+00
       H  5.43509e+00  5.37432e+00  4.19374e+00
3
# CELL(abcABC):  188.97261   188.97261   188.97261    90.00000    90.00000    90.00000  Step:         540  Bead:       0 x_centroid{angstrom}  cell{atomic_unit}
       O  4.98460e+00  4.96733e+00  4.93517e+00
       H  5.36844e+00  4.36332e+00  5.54923e+00
       H  5.70519e+00  5.53167e+00  4.58210e+00
3
# CELL(abcABC):  188.97261   188.97261   188.97261    90.00000    90.00000    90.00000  Step:         560  Bead:       0 x_centroid{angstrom}  cell{atomic_unit}
       O  4.99977e+00  4.97172e+00  4.91140e+00
       H  5.08515e+00  4.28668e+00  5.49679e+00
       H  5.74776e+00  5.53871e+00  5.01173e+00
3
# CELL(abcABC):  188.97261   188.97261   188.97261    90.00000    90.00000    90.00000  Step:         580  Bead:       0 x_centroid{angstrom}  cell{atomic_unit}
       O  5.02560e+00  4.97614e+00  4.89459e+00
       H  4.86491e+00  4.22932e+00  5.38036e+00
       H  5.55786e+00  5.52579e+00  5.39501e+00
3
# CELL(abcABC):  188.97261   188.97261   188.97261    90.00000    90.00000    90.00000  Step:         600  Bead:       0 x_centroid{angstrom}  cell{atomic_unit}
       O  5.04819e+00  4.98012e+00  4.89026e+00
       H  4.79981e+00  4.16749e+00  5.25295e+00
       H  5.26444e+00  5.52458e+00  5.59118e+00
3
# CELL(abcABC):  188.97261   188.97261   188.97261    90.00000    90.00000    90.00000  Step:         620  Bead:       0 x_centroid{angstrom}  cell{atomic_unit}
       O  5.06496e+00  4.98878e+00  4.89460e+00
       H  4.90642e+00  4.05348e+00  5.12094e+00
       H  4.89164e+00  5.50104e+00  5.65435e+00
3
# CELL(abcABC):  188.97261   188.97261   188.97261    90.00000    90.00000    90.00000  Step:         640  Bead:       0 x_centroid{angstrom}  cell{atomic_unit}
       O  5.07618e+00  4.99370e+00  4.89909e+00
       H  5.11925e+00  4.03292e+00  5.16246e+00
       H  4.50076e+00  5.44352e+00  5.54146e+00
3
# CELL(abcABC):  188.97261   188.97261   188.97261    90.00000    90.00000    90.00000  Step:         660  Bead:       0 x_centroid{angstrom}  cell{atomic_unit}
       O  5.08118e+00  4.99174e+00  4.90281e+00
       H  5.26360e+00  4.09901e+00  5.25653e+00
       H  4.27704e+00  5.40853e+00  5.38848e+00
3
# CELL(abcABC):  188.97261   188.97261   188.97261    90.00000    90.00000    90.00000  Step:         680  Bead:       0 x_centroid{angstrom}  cell{atomic_unit}
       O  5.08995e+00  4.99428e+00  4.90758e+00
       H  5.21303e+00  4.13186e+00  5.30445e+00
       H  4.18842e+00  5.33538e+00  5.26471e+00
3
# CELL(abcABC):  188.97261   188.97261   188.97261    90.00000    90.00000    90.00000  Step:         700  Bead:       0 x_centroid{angstrom}  cell{atomic_unit}
       O  5.09440e+00  4.99221e+00  4.91964e+00
       H  5.08575e+00  4.10538e+00  5.22491e+00
       H  4.24492e+00  5.39464e+00  5.15280e+00
3
# CELL(abcABC):  188.97261   188.97261   188.97261    90.00000    90.00000    90.00000  Step:         720  Bead:       0 x_centroid{angstrom}  cell{atomic_unit}
       O  5.10192e+00  4.98867e+00  4.92996e+00
       H  4.92335e+00  4.12684e+00  5.21608e+00
       H  4.28808e+00  5.42946e+00  4.99786e+00
3
# CELL(abcABC):  188.97261   188.97261   188.97261    90.00000    90.00000    90.00000  Step:         740  Bead:       0 x_centroid{angstrom}  cell{atomic_unit}
       O  5.10229e+00  4.98512e+00  4.94432e+00
       H  4.87361e+00  4.14978e+00  5.27090e+00
       H  4.33194e+00  5.46290e+00  4.71510e+00
3
# CELL(abcABC):  188.97261   188.97261   188.97261    90.00000    90.00000    90.00000  Step:         760  Bead:       0 x_centroid{angstrom}  cell{atomic_unit}
       O  5.10474e+00  4.98446e+00  4.96110e+00
       H  4.70923e+00  4.17947e+00  5.26032e+00
       H  4.45743e+00  5.44371e+00  4.45942e+00
3
# CELL(abcABC):  188.97261   188.97261   188.97261    90.00000    90.00000    90.00000  Step:         780  Bead:       0 x_centroid{angstrom}  cell{atomic_unit}
       O  5.10274e+00  4.97877e+00  4.97033e+00
       H  4.54865e+00  4.32672e+00  5.31626e+00
       H  4.64970e+00  5.38668e+00  4.25698e+00
3
# CELL(abcABC):  188.97261   188.97261   188.97261    90.00000    90.00000    90.00000  Step:         800  Bead:       0 x_centroid{angstrom}  cell{atomic_unit}
       O  5.10283e+00  4.97080e+00  4.97316e+00
       H  4.36225e+00  4.56096e+00  5.39634e+00
       H  4.83468e+00  5.27895e+00  4.13197e+00
3
# CELL(abcABC):  188.97261   188.97261   188.97261    90.00000    90.00000    90.00000  Step:         820  Bead:       0 x_centroid{angstrom}  cell{atomic_unit}
       O  5.09801e+00  4.95868e+00  4.98006e+00
       H  4.23921e+00  4.88250e+00  5.35102e+00
       H  5.03430e+00  5.14988e+00  4.06769e+00
3
# CELL(abcABC):  188.97261   188.97261   188.97261    90.00000    90.00000    90.00000  Step:         840  Bead:       0 x_centroid{angstrom}  cell{atomic_unit}
       O  5.09344e+00  4.94391e+00  4.98856e+00
       H  4.23286e+00  5.16686e+00  5.21599e+00
       H  5.11319e+00  5.09992e+00  4.06787e+00
3
# CELL(abcABC):  188.97261   188.97261   188.97261    90.00000    90.00000    90.00000  Step:         860  Bead:       0 x_centroid{angstrom}  cell{atomic_unit}
       O  5.07652e+00  4.93062e+00  4.99001e+00
       H  4.30365e+00  5.41624e+00  5.17912e+00
       H  5.31085e+00  5.06148e+00  4.08169e+00
3
# CELL(abcABC):  188.97261   188.97261   188.97261    90.00000    90.00000    90.00000  Step:         880  Bead:       0 x_centroid{angstrom}  cell{atomic_unit}
       O  5.06416e+00  4.92302e+00  4.99627e+00
       H  4.40175e+00  5.59268e+00  5.02416e+00
       H  5.40895e+00  5.00572e+00  4.13722e+00
3
# CELL(abcABC):  188.97261   188.97261   188.97261    90.00000    90.00000    90.00000  Step:         900  Bead:       0 x_centroid{angstrom}  cell{atomic_unit}
       O  5.05306e+00  4.92895e+00  4.99673e+00
       H  4.53443e+00  5.71003e+00  4.98263e+00
       H  5.45256e+00  4.79413e+00  4.17149e+00
3
# CELL(abcABC):  188.97261   188.97261   188.97261    90.00000    90.00000    90.00000  Step:         920  Bead:       0 x_centroid{angstrom}  cell{atomic_unit}
       O  5.04358e+00  4.92825e+00  5.00282e+00
       H  4.71183e+00  5.79986e+00  4.88124e+00
       H  5.42560e+00  4.71552e+00  4.17614e+00
3
# CELL(abcABC):  188.97261   188.97261   188.97261    90.00000    90.00000    90.00000  Step:         940  Bead:       0 x_centroid{angstrom}  cell{atomic_unit}
       O  5.04993e+00  4.93942e+00  5.00436e+00
       H  4.68021e+00  5.78761e+00  4.82715e+00
       H  5.35646e+00  4.55042e+00  4.20578e+00
3
# CELL(abcABC):  188.97261   188.97261   188.97261    90.00000    90.00000    90.00000  Step:         960  Bead:       0 x_centroid{angstrom}  cell{atomic_unit}
       O  5.05822e+00  4.94669e+00  5.01152e+00
       H  4.69049e+00  5.73927e+00  4.75175e+00
       H  5.21453e+00  4.48335e+00  4.16754e+00
3
# CELL(abcABC):  188.97261   188.97261   188.97261    90.00000    90.00000    90.00000  Step:         980  Bead:       0 x_centroid{angstrom}  cell{atomic_unit}
       O  5.06680e+00  4.95695e+00  5.00441e+00
       H  4.63859e+00  5.74677e+00  4.78377e+00
       H  5.13021e+00  4.31306e+00  4.24838e+00
3
# CELL(abcABC):  188.97261   188.97261   188.97261    90.00000    90.00000    90.00000  Step:        1000  Bead:       0 x_centroid{angstrom}  cell{atomic_unit}
       O  5.08320e+00  4.96467e+00  5.00918e+00
       H  4.54020e+00  5.64930e+00  4.59868e+00
       H  4.96835e+00  4.28798e+00  4.35786e+00
3
# CELL(abcABC):  188.97261   188.97261   188.97261    90.00000    90.00000    90.00000  Step:        1020  Bead:       0 x_centroid{angstrom}  cell{atomic_unit}
       O  5.09033e+00  4.97102e+00  4.98726e+00
       H  4.51878e+00  5.70832e+00  4.68999e+00
       H  4.87656e+00  4.12807e+00  4.61449e+00
3
# CELL(abcABC):  188.97261   188.97261   188.97261    90.00000    90.00000    90.00000  Step:        1040  Bead:       0 x_centroid{angstrom}  cell{atomic_unit}
       O  5.11550e+00  4.97112e+00  4.97576e+00
       H  4.41555e+00  5.60709e+00  4.70241e+00
       H  4.58033e+00  4.22779e+00  4.78450e+00
3
# CELL(abcABC):  188.97261   188.97261   188.97261    90.00000    90.00000    90.00000  Step:        1060  Bead:       0 x_centroid{angstrom}  cell{atomic_unit}
       O  5.09842e+00  4.96274e+00  4.94493e+00
       H  4.69266e+00  5.81142e+00  4.88337e+00
       H  4.57431e+00  4.15644e+00  5.09291e+00
3
# CELL(abcABC):  188.97261   188.97261   188.97261    90.00000    90.00000    90.00000  Step:        1080  Bead:       0 x_centroid{angstrom}  cell{atomic_unit}
       O  5.11135e+00  4.94493e+00  4.92004e+00
       H  4.72376e+00  5.76680e+00  5.09537e+00
       H  4.33801e+00  4.48384e+00  5.27599e+00
3
# CELL(abcABC):  188.97261   188.97261   188.97261    90.00000    90.00000    90.00000  Step:        1100  Bead:       0 x_centroid{angstrom}  cell{atomic_unit}
       O  5.07591e+00  4.94306e+00  4.91793e+00
       H  5.22217e+00  5.82078e+00  5.07541e+00
       H  4.40205e+00  4.45945e+00  5.32958e+00
3
# CELL(abcABC):  188.97261   188.97261   188.97261    90.00000    90.00000    90.00000  Step:        1120  Bead:       0 x_centroid{angstrom}  cell{atomic_unit}
       O  5.06335e+00  4.92523e+00  4.89446e+00
       H  5.36474e+00  5.73595e+00  5.24231e+00
       H  4.45885e+00  4.82727e+00  5.53518e+00
3
# CELL(abcABC):  188.97261   188.97261   188.97261    90.00000    90.00000    90.00000  Step:        1140  Bead:       0 x_centroid{angstrom}  cell{atomic_unit}
       O  5.03948e+00  4.93285e+00  4.91515e+00
       H  5.75052e+00  5.58106e+00  4.93237e+00
       H  4.45194e+00  4.86124e+00  5.51671e+00
3
# CELL(abcABC):  188.97261   188.97261   188.97261    90.00000    90.00000    90.00000  Step:        1160  Bead:       0 x_centroid{angstrom}  cell{atomic_unit}
       O  5.02325e+00  4.91916e+00  4.90457e+00
       H  5.80097e+00  5.45679e+00  4.94208e+00
       H  4.65912e+00  5.20285e+00  5.67499e+00
3
# CELL(abcABC):  188.97261   188.97261   188.97261    90.00000    90.00000    90.00000  Step:        1180  Bead:       0 x_centroid{angstrom}  cell{atomic_unit}
       O  5.02250e+00  4.91899e+00  4.92208e+00
       H  5.86575e+00  5.27285e+00  4.65761e+00
       H  4.60634e+00  5.38942e+00  5.68150e+00
3
# CELL(abcABC):  188.97261   188.97261   188.97261    90.00000    90.00000    90.00000  Step:        1200  Bead:       0 x_centroid{angstrom}  cell{atomic_unit}
       O  5.02572e+00  4.90027e+00  4.94240e+00
       H  5.70760e+00  5.26516e+00  4.50400e+00
       H  4.71335e+00  5.69430e+00  5.51257e+00
3
# CELL(abcABC):  188.97261   188.97261   188.97261    90.00000    90.00000    90.00000  Step:        1220  Bead:       0 x_centroid{angstrom}  cell{atomic_unit}
       O  5.02773e+00  4.90911e+00  4.96423e+00
       H  5.62100e+00  4.99795e+00  4.31724e+00
       H  4.76804e+00  5.82114e+00  5.35272e+00
3
# CELL(abcABC):  188.97261   188.97261   188.97261    90.00000    90.00000    90.00000  Step:        1240  Bead:       0 x_centroid{angstrom}  cell{atomic_unit}
       O  5.03443e+00  4.91649e+00  4.99182e+00
       H  5.37041e+00  4.81140e+00  4.12421e+00
       H  4.91223e+00  5.89068e+00  5.10782e+00
3
# CELL(abcABC):  188.97261   188.97261   188.97261    90.00000    90.00000    90.00000  Step:        1260  Bead:       0 x_centroid{angstrom}  cell{atomic_unit}
       O  5.05171e+00  4.92869e+00  5.00378e+00
       H  4.92523e+00  4.60754e+00  4.06878e+00
       H  5.08319e+00  5.90088e+00  4.97338e+00
3
# CELL(abcABC):  188.97261   188.97261   188.97261    90.00000    90.00000    90.00000  Step:        1280  Bead:       0 x_centroid{angstrom}  cell{atomic_unit}
       O  5.07640e+00  4.93146e+00  4.99688e+00
       H  4.46912e+00  4.56537e+00  4.25388e+00
       H  5.14729e+00  5.89909e+00  4.89782e+00
3
# CELL(abcABC):  188.97261   188.97261   188.97261    90.00000    90.00000    90.00000  Step:        1300  Bead:       0 x_centroid{angstrom}  cell{atomic_unit}
       O  5.09382e+00  4.92582e+00  4.97774e+00
       H  4.15484e+00  4.73604e+00  4.70759e+00
       H  5.18508e+00  5.81785e+00  4.74792e+00
3
# CELL(abcABC):  188.97261   188.97261   188.97261    90.00000    90.00000    90.00000  Step:        1320  Bead:       0 x_centroid{angstrom}  cell{atomic_unit}
       O  5.08417e+00  4.91850e+00  4.94340e+00
       H  4.15445e+00  4.89410e+00  5.20896e+00
       H  5.33868e+00  5.77604e+00  4.79174e+00
3
# CELL(abcABC):  188.97261   188.97261   188.97261    90.00000    90.00000    90.00000  Step:        1340  Bead:       0 x_centroid{angstrom}  cell{atomic_unit}
       O  5.05878e+00  4.90954e+00  4.91841e+00
       H  4.44533e+00  5.03799e+00  5.58878e+00
       H  5.45076e+00  5.77432e+00  4.80854e+00
3
# CELL(abcABC):  188.97261   188.97261   188.97261    90.00000    90.00000    90.00000  Step:        1360  Bead:       0 x_centroid{angstrom}  cell{atomic_unit}
       O  5.02139e+00  4.92212e+00  4.91615e+00
       H  4.81516e+00  5.00571e+00  5.76077e+00
       H  5.67451e+00  5.60696e+00  4.67248e+00
3
# CELL(abcABC):  188.97261   188.97261   188.97261    90.00000    90.00000    90.00000  Step:        1380  Bead:       0 x_centroid{angstrom}  cell{atomic_unit}
       O  4.99882e+00  4.93140e+00  4.92000e+00
       H  5.06670e+00  5.07841e+00  5.81265e+00
       H  5.78121e+00  5.38701e+00  4.55948e+00
3
# CELL(abcABC):  188.97261   188.97261   188.97261    90.00000    90.00000    90.00000  Step:        1400  Bead:       0 x_centroid{angstrom}  cell{atomic_unit}
       O  4.99298e+00  4.94914e+00  4.92896e+00
       H  5.20721e+00  5.04750e+00  5.86665e+00
       H  5.73337e+00  5.13618e+00  4.36319e+00
3
# CELL(abcABC):  188.97261   188.97261   188.97261    90.00000    90.00000    90.00000  Step:        1420  Bead:       0 x_centroid{angstrom}  cell{atomic_unit}
       O  4.97860e+00  4.96353e+00  4.93952e+00
       H  5.52314e+00  5.09997e+00  5.76744e+00
       H  5.64567e+00  4.85541e+00  4.29484e+00
3
# CELL(abcABC):  188.97261   188.97261   188.97261    90.00000    90.00000    90.00000  Step:        1440  Bead:       0 x_centroid{angstrom}  cell{atomic_unit}
       O  4.98720e+00  4.97668e+00  4.95035e+00
       H  5.62983e+00  5.22574e+00  5.66531e+00
       H  5.40256e+00  4.52082e+00  4.22498e+00
3
# CELL(abcABC):  188.97261   188.97261   188.97261    90.00000    90.00000    90.00000  Step:        1460  Bead:       0 x_centroid{angstrom}  cell{atomic_unit}
       O  4.98152e+00  4.98511e+00  4.95668e+00
       H  5.83573e+00  5.32726e+00  5.35652e+00
       H  5.28684e+00  4.28546e+00  4.43326e+00
3
# CELL(abcABC):  188.97261   188.97261   188.97261    90.00000    90.00000    90.00000  Step:        1480  Bead:       0 x_centroid{angstrom}  cell{atomic_unit}
       O  4.99338e+00  4.98848e+00  4.96501e+00
       H  5.83597e+00  5.45246e+00  5.08423e+00
       H  5.09828e+00  4.10686e+00  4.57335e+00
3
# CELL(abcABC):  188.97261   188.97261   188.97261    90.00000    90.00000    90.00000  Step:        1500  Bead:       0 x_centroid{angstrom}  cell{atomic_unit}
       O  4.99137e+00  4.99129e+00  4.98137e+00
       H  5.83578e+00  5.43297e+00  4.73024e+00
       H  5.13046e+00  4.08173e+00  4.66764e+00
3
# CELL(abcABC):  188.97261   188.97261   188.97261    90.00000    90.00000    90.00000  Step:        1520  Bead:       0 x_centroid{angstrom}  cell{atomic_unit}
       O  5.00118e+00  4.98571e+00  4.98058e+00
       H  5.64091e+00  5.55016e+00  4.59363e+00
       H  5.16957e+00  4.05312e+00  4.81687e+00
3
# CELL(abcABC):  188.97261   188.97261   188.97261    90.00000    90.00000    90.00000  Step:        1540  Bead:       0 x_centroid{angstrom}  cell{atomic_unit}
       O  4.99145e+00  4.97647e+00  4.98933e+00
       H  5.50541e+00  5.57941e+00  4.49628e+00
       H  5.45957e+00  4.17055e+00  4.77525e+00
3
# CELL(abcABC):  188.97261   188.97261   188.97261    90.00000    90.00000    90.00000  Step:        1560  Bead:       0 x_centroid{angstrom}  cell{atomic_unit}
       O  4.99740e+00  4.96157e+00  4.97458e+00
       H  5.22434e+00  5.73647e+00  4.54754e+00
       H  5.64614e+00  4.25003e+00  4.95820e+00
3
# CELL(abcABC):  188.97261   188.97261   188.97261    90.00000    90.00000    90.00000  Step:        1580  Bead:       0 x_centroid{angstrom}  cell{atomic_unit}
       O  4.98981e+00  4.94891e+00  4.97359e+00
       H  5.16811e+00  5.71811e+00  4.53878e+00
       H  5.82280e+00  4.46931e+00  4.98269e+00
3
# CELL(abcABC):  188.97261   188.97261   188.97261    90.00000    90.00000    90.00000  Step:        1600  Bead:       0 x_centroid{angstrom}  cell{atomic_unit}
       O  4.99298e+00  4.93988e+00  4.96705e+00
       H  5.07477e+00  5.73871e+00  4.50134e+00
       H  5.86578e+00  4.59208e+00  5.12388e+00
3
# CELL(abcABC):  188.97261   188.97261   188.97261    90.00000    90.00000    90.00000  Step:        1620  Bead:       0 x_centroid{angstrom}  cell{atomic_unit}
       O  4.99278e+00  4.92844e+00  4.95634e+00
       H  5.04215e+00  5.81277e+00  4.55151e+00
       H  5.90157e+00  4.69961e+00  5.24373e+00
3
# CELL(abcABC):  188.97261   188.97261   188.97261    90.00000    90.00000    90.00000  Step:        1640  Bead:       0 x_centroid{angstrom}  cell{atomic_unit}
       O  4.99347e+00  4.92356e+00  4.94569e+00
       H  5.08256e+00  5.85384e+00  4.56855e+00
       H  5.85035e+00  4.73601e+00  5.39577e+00
3
# CELL(abcABC):  188.97261   188.97261   188.97261    90.00000    90.00000    90.00000  Step:        1660  Bead:       0 x_centroid{angstrom}  cell{atomic_unit}
       O  5.00138e+00  4.92262e+00  4.93570e+00
       H  5.10029e+00  5.85728e+00  4.57761e+00
       H  5.70702e+00  4.74747e+00  5.54517e+00
3
# CELL(abcABC):  188.97261   188.97261   188.97261    90.00000    90.00000    90.00000  Step:        1680  Bead:       0 x_centroid{angstrom}  cell{atomic_unit}
       O  5.01000e+00  4.91791e+00  4.92064e+00
       H  5.12487e+00  5.82832e+00  4.67293e+00
       H  5.54558e+00  4.85111e+00  5.68893e+00
3
# CELL(abcABC):  188.97261   188.97261   188.97261    90.00000    90.00000    90.00000  Step:        1700  Bead:       0 x_centroid{angstrom}  cell{atomic_unit}
       O  5.02919e+00  4.91967e+00  4.91750e+00
       H  5.02402e+00  5.80904e+00  4.63371e+00
       H  5.34183e+00  4.84242e+00  5.77799e+00
3
# CELL(abcABC):  188.97261   188.97261   188.97261    90.00000    90.00000    90.00000  Step:        1720  Bead:       0 x_centroid{angstrom}  cell{atomic_unit}
       O  5.04463e+00  4.91104e+00  4.91108e+00
       H  4.92044e+00  5.84994e+00  4.67824e+00
       H  5.20024e+00  4.93858e+00  5.83547e+00
3
# CELL(abcABC):  188.97261   188.97261   188.97261    90.00000    90.00000    90.00000  Step:        1740  Bead:       0 x_centroid{angstrom}  cell{atomic_unit}
       O  5.06105e+00  4.92304e+00  4.91187e+00
       H  4.73934e+00  5.78264e+00  4.63292e+00
       H  5.12078e+00  4.81534e+00  5.86824e+00
3
# CELL(abcABC):  188.97261   188.97261   188.97261    90.00000    90.00000    90.00000  Step:        1760  Bead:       0 x_centroid{angstrom}  cell{atomic_unit}
       O  5.07376e+00  4.92544e+00  4.90009e+00
       H  4.57972e+00  5.67862e+00  4.77941e+00
       H  5.07859e+00  4.88129e+00  5.90867e+00
3
# CELL(abcABC):  188.97261   188.97261   188.97261    90.00000    90.00000    90.00000  Step:        1780  Bead:       0 x_centroid{angstrom}  cell{atomic_unit}
       O  5.07131e+00  4.93857e+00  4.90443e+00
       H  4.37086e+00  5.54983e+00  4.75391e+00
       H  5.32641e+00  4.80170e+00  5.86528e+00
3
# CELL(abcABC):  188.97261   188.97261   188.97261    90.00000    90.00000    90.00000  Step:        1800  Bead:       0 x_centroid{angstrom}  cell{atomic_unit}
       O  5.08203e+00  4.94162e+00  4.89212e+00
       H  4.24295e+00  5.40700e+00  5.00085e+00
       H  5.28407e+00  4.89617e+00  5.81372e+00
3
# CELL(abcABC):  188.97261   188.97261   188.97261    90.00000    90.00000    90.00000  Step:        1820  Bead:       0 x_centroid{angstrom}  cell{atomic_unit}
       O  5.06705e+00  4.94245e+00  4.90498e+00
       H  4.23372e+00  5.36985e+00  4.89068e+00
       H  5.53121e+00  4.92009e+00  5.71981e+00
3
# CELL(abcABC):  188.97261   188.97261   188.97261    90.00000    90.00000    90.00000  Step:        1840  Bead:       0 x_centroid{angstrom}  cell{atomic_unit}
       O  5.06554e+00  4.93163e+00  4.89447e+00
       H  4.29871e+00  5.48391e+00  5.07858e+00
       H  5.49016e+00  4.97774e+00  5.69881e+00
3
# CELL(abcABC):  188.97261   188.97261   188.97261    90.00000    90.00000    90.00000  Step:        1860  Bead:       0 x_centroid{angstrom}  cell{atomic_unit}
       O  5.05852e+00  4.93450e+00  4.90509e+00
       H  4.34849e+00  5.61819e+00  4.94224e+00
       H  5.55174e+00  4.79789e+00  5.66646e+00
3
# CELL(abcABC):  188.97261   188.97261   188.97261    90.00000    90.00000    90.00000  Step:        1880  Bead:       0 x_centroid{angstrom}  cell{atomic_unit}
       O  5.04965e+00  4.92596e+00  4.89484e+00
       H  4.49927e+00  5.74121e+00  5.05399e+00
       H  5.54188e+00  4.81046e+00  5.71738e+00
3
# CELL(abcABC):  188.97261   188.97261   188.97261    90.00000    90.00000    90.00000  Step:        1900  Bead:       0 x_centroid{angstrom}  cell{atomic_unit}
       O  5.03615e+00  4.92949e+00  4.89611e+00
       H  4.70733e+00  5.80569e+00  5.05272e+00
       H  5.54795e+00  4.69003e+00  5.69853e+00
3
# CELL(abcABC):  188.97261   188.97261   188.97261    90.00000    90.00000    90.00000  Step:        1920  Bead:       0 x_centroid{angstrom}  cell{atomic_unit}
       O  5.02051e+00  4.93431e+00  4.90670e+00
       H  4.88049e+00  5.82989e+00  5.02134e+00
       H  5.62309e+00  4.58929e+00  5.56178e+00
3
# CELL(abcABC):  188.97261   188.97261   188.97261    90.00000    90.00000    90.00000  Step:        1940  Bead:       0 x_centroid{angstrom}  cell{atomic_unit}
       O  5.00291e+00  4.93977e+00  4.91528e+00