108
# CELL(abcABC):   33.72594    33.72594    33.72594    90.00000    90.00000    90.00000  Step:           0  Bead:       0 positions{atomic_unit}  cell{atomic_unit}
      H2  2.77790e-01  2.49444e-01  2.15429e-01
      H2 -2.36216e-01  5.56146e+00  6.02445e+00
      H2  5.74855e+00  5.55013e+00  2.02201e-01
      H2  5.62382e+00 -2.79679e-01  5.59359e+00
      H2 -4.32747e-01 -5.66918e-02  1.11928e+01
      H2  1.77634e-01  5.66729e+00  1.68469e+01
      H2  5.58225e+00  5.47076e+00  1.11683e+01
      H2  5.46509e+00 -2.92908e-01  1.67619e+01
      H2 -9.07069e-02  1.64406e-01  2.24896e+01
      H2  3.21253e-02  5.56902e+00  2.82609e+01
      H2  5.62949e+00  5.64839e+00  2.24405e+01
      H2  5.62382e+00  2.15429e-01  2.79566e+01
      H2 -1.00155e-01  1.10587e+01 -3.11805e-01
      H2  1.13384e-02  1.67392e+01  5.74477e+00
      H2  5.74666e+00  1.69149e+01 -1.81414e-01
      H2  5.68241e+00  1.11097e+01  5.43485e+00
      H2  1.07714e-01  1.11683e+01  1.14064e+01
      H2 -1.83303e-01  1.67562e+01  1.66371e+01
      H2  5.35170e+00  1.65653e+01  1.08073e+01
      H2  5.94886e+00  1.12552e+01  1.69395e+01
      H2  5.85815e-02  1.12892e+01  2.25482e+01
      H2  2.34326e-01  1.69546e+01  2.78224e+01
      H2  5.66540e+00  1.67449e+01  2.25860e+01
      H2  5.61438e+00  1.12306e+01  2.81834e+01
      H2  1.70075e-02  2.22421e+01  1.68186e-01
      H2  2.83459e-02  2.82155e+01  5.65406e+00
      H2  5.52556e+00  2.81361e+01  1.17163e-01
      H2  5.35170e+00  2.25218e+01  5.97531e+00
      H2 -1.83303e-01  2.24594e+01  1.15368e+01
      H2  3.19364e-01  2.78376e+01  1.67978e+01
      H2  5.43674e+00  2.78735e+01  1.11891e+01
      H2  5.81658e+00  2.27485e+01  1.68866e+01
      H2  3.59048e-02  2.26975e+01  2.24594e+01
      H2  2.62672e-01  2.80587e+01  2.80454e+01
      H2  5.48776e+00  2.80341e+01  2.27145e+01
      H2  5.82603e+00  2.27013e+01  2.82363e+01
      H2  1.14177e+01  9.63760e-02 -2.30547e-01
      H2  1.11702e+01  5.58792e+00  5.31202e+00
      H2  1.69112e+01  5.87894e+00  2.45664e-02
      H2  1.69905e+01 -1.88973e-02  5.27989e+00
      H2  1.14536e+01  7.93685e-02  1.13724e+01
      H2  1.16332e+01  5.67296e+00  1.64557e+01
      H2  1.68601e+01  5.79957e+00  1.11664e+01
      H2  1.69849e+01  2.49444e-01  1.70189e+01
      H2  1.11796e+01  2.96687e-01  2.25558e+01
      H2  1.13591e+01  5.36871e+00  2.81739e+01
      H2  1.69584e+01  5.65028e+00  2.24991e+01
      H2  1.69055e+01 -2.26767e-02  2.78961e+01
      H2  1.10946e+01  1.10662e+01 -2.24877e-01
      H2  1.16483e+01  1.67108e+01  5.70130e+00
      H2  1.73723e+01  1.65578e+01  1.43619e-01
      H2  1.66938e+01  1.12722e+01  5.35737e+00
      H2  1.13138e+01  1.13440e+01  1.12269e+01
      H2  1.12949e+01  1.69584e+01  1.67033e+01
      H2  1.70548e+01  1.67165e+01  1.13799e+01
      H2  1.67203e+01  1.07601e+01  1.72778e+01
      H2  1.11947e+01  1.13988e+01  2.24216e+01
      H2  1.13743e+01  1.66806e+01  2.80927e+01
      H2  1.66957e+01  1.71512e+01  2.25652e+01
      H2  1.68016e+01  1.14121e+01  2.81475e+01
      H2  1.10662e+01  2.26729e+01  1.98421e-01
      H2  1.10133e+01  2.79358e+01  5.48587e+00
      H2  1.68979e+01  2.81550e+01 -7.93685e-02
      H2  1.68753e+01  2.26125e+01  5.69752e+00
      H2  1.14763e+01  2.24216e+01  1.11721e+01
      H2  1.13969e+01  2.81399e+01  1.69679e+01
      H2  1.69546e+01  2.80776e+01  1.11173e+01
      H2  1.69263e+01  2.23649e+01  1.69452e+01
      H2  1.12741e+01  2.24537e+01  2.27599e+01
      H2  1.12382e+01  2.77884e+01  2.79188e+01
      H2  1.67732e+01  2.80681e+01  2.25841e+01
      H2  1.69924e+01  2.25199e+01  2.82117e+01
      H2  2.25747e+01  1.66296e-01 -5.29123e-02
      H2  2.23536e+01  5.82225e+00  5.89028e+00
      H2  2.83535e+01  5.73154e+00 -1.51178e-02
      H2  2.80209e+01  2.26767e-01  5.72398e+00
      H2  2.24991e+01  3.21253e-02  1.13289e+01
      H2  2.24367e+01  5.51044e+00  1.70378e+01
      H2  2.81701e+01  5.78634e+00  1.12628e+01
      H2  2.82476e+01 -2.30547e-01  1.67505e+01
      H2  2.24292e+01 -2.22988e-01  2.25444e+01
      H2  2.25482e+01  5.41029e+00  2.83062e+01
      H2  2.80341e+01  5.62382e+00  2.27107e+01
      H2  2.80662e+01 -4.11960e-01  2.79358e+01
      H2  2.24726e+01  1.13195e+01  1.09604e-01
      H2  2.23290e+01  1.64104e+01  5.54824e+00
      H2  2.82665e+01  1.67732e+01 -1.03935e-01
      H2  2.80435e+01  1.14536e+01  5.51044e+00
      H2  2.25085e+01  1.12836e+01  1.08206e+01
      H2  2.25274e+01  1.69074e+01  1.68469e+01
      H2  2.84064e+01  1.69546e+01  1.10190e+01
      H2  2.77771e+01  1.11286e+01  1.68771e+01
      H2  2.22326e+01  1.10436e+01  2.23857e+01
      H2  2.26446e+01  1.65446e+01  2.82193e+01
      H2  2.80435e+01  1.68677e+01  2.25766e+01
      H2  2.83005e+01  1.07941e+01  2.79131e+01
      H2  2.23441e+01  2.24329e+01 -1.32281e-02
      H2  2.24764e+01  2.80435e+01  5.23643e+00
      H2  2.84196e+01  2.82098e+01  3.96842e-02
      H2  2.81116e+01  2.23951e+01  5.49910e+00
      H2  2.22704e+01  2.25520e+01  1.14725e+01
      H2  2.25577e+01  2.77431e+01  1.68734e+01
      H2  2.82231e+01  2.81607e+01  1.10984e+01
      H2  2.81229e+01  2.25709e+01  1.70208e+01
      H2  2.25652e+01  2.25936e+01  2.24443e+01
      H2  2.22818e+01  2.81569e+01  2.82609e+01
      H2  2.80398e+01  2.82457e+01  2.23573e+01
      H2  2.81399e+01  2.26862e+01  2.84404e+01
108
# CELL(abcABC):   33.72592    33.72592    33.72592    90.00000    90.00000    90.00000  Step:           1  Bead:       0 positions{atomic_unit}  cell{atomic_unit}
      H2  2.85314e-01  2.56862e-01  2.31525e-01
      H2 -2.39459e-01  5.55420e+00  6.03623e+00
      H2  5.74910e+00  5.55648e+00  2.00569e-01
      H2  5.61943e+00 -2.79793e-01  5.59011e+00
      H2 -4.44237e-01 -5.00889e-02  1.11861e+01
      H2  1.72914e-01  5.66889e+00  1.68509e+01
      H2  5.58813e+00  5.46419e+00  1.11610e+01
      H2  5.46703e+00 -2.97910e-01  1.67599e+01
      H2 -9.98612e-02  1.62849e-01  2.24922e+01
      H2  3.27214e-02  5.56847e+00  2.82574e+01
      H2  5.62637e+00  5.65303e+00  2.24427e+01
      H2  5.62202e+00  2.13135e-01  2.79573e+01
      H2 -1.01060e-01  1.10520e+01 -3.13004e-01
      H2  2.06425e-02  1.67418e+01  5.75589e+00
      H2  5.73626e+00  1.69225e+01 -1.79702e-01
      H2  5.67655e+00  1.11076e+01  5.43991e+00
      H2  1.03714e-01  1.11703e+01  1.14099e+01
      H2 -1.90741e-01  1.67605e+01  1.66210e+01
      H2  5.35540e+00  1.65550e+01  1.07970e+01
      H2  5.94471e+00  1.12626e+01  1.69365e+01
      H2  5.79856e-02  1.12966e+01  2.25539e+01
      H2  2.35435e-01  1.69629e+01  2.78231e+01
      H2  5.66820e+00  1.67413e+01  2.25984e+01
      H2  5.60964e+00  1.12337e+01  2.81827e+01
      H2  1.42811e-02  2.22412e+01  1.79825e-01
      H2  2.53036e-02  2.82081e+01  5.65692e+00
      H2  5.53251e+00  2.81409e+01  1.27975e-01
      H2  5.35192e+00  2.25249e+01  5.97886e+00
      H2 -1.88747e-01  2.24512e+01  1.15420e+01
      H2  3.12867e-01  2.78342e+01  1.67961e+01
      H2  5.44091e+00  2.78641e+01  1.11887e+01
      H2  5.82052e+00  2.27511e+01  1.68918e+01
      H2  3.51782e-02  2.27041e+01  2.24658e+01
      H2  2.56159e-01  2.80573e+01  2.80366e+01
      H2  5.48139e+00  2.80308e+01  2.27215e+01
      H2  5.83165e+00  2.27019e+01  2.82438e+01
      H2  1.14122e+01  1.04255e-01 -2.38846e-01
      H2  1.11763e+01  5.59518e+00  5.30712e+00
      H2  1.69022e+01  5.89043e+00  2.31822e-02
      H2  1.69881e+01 -2.65393e-02  5.27515e+00
      H2  1.14550e+01  8.05008e-02  1.13695e+01
      H2  1.16283e+01  5.68493e+00  1.64524e+01
      H2  1.68550e+01  5.78808e+00  1.11617e+01
      H2  1.69828e+01  2.33130e-01  1.70220e+01
      H2  1.11855e+01  2.95071e-01  2.25532e+01
      H2  1.13601e+01  5.36516e+00  2.81694e+01
      H2  1.69570e+01  5.65034e+00  2.24984e+01
      H2  1.69066e+01 -2.12929e-02  2.78948e+01
      H2  1.10892e+01  1.10615e+01 -2.24403e-01
      H2  1.16449e+01  1.67132e+01  5.70208e+00
      H2  1.73778e+01  1.65526e+01  1.44815e-01
      H2  1.67020e+01  1.12669e+01  5.34843e+00
      H2  1.13012e+01  1.13492e+01  1.12294e+01
      H2  1.12992e+01  1.69630e+01  1.67105e+01
      H2  1.70574e+01  1.67011e+01  1.13905e+01
      H2  1.67161e+01  1.07521e+01  1.72774e+01
      H2  1.12003e+01  1.14045e+01  2.24154e+01
      H2  1.13710e+01  1.66776e+01  2.80912e+01
      H2  1.66903e+01  1.71521e+01  2.25694e+01
      H2  1.68017e+01  1.14093e+01  2.81468e+01
      H2  1.10736e+01  2.26763e+01  2.05039e-01
      H2  1.10034e+01  2.79351e+01  5.48140e+00
      H2  1.68828e+01  2.81566e+01 -7.37360e-02
      H2  1.68904e+01  2.26189e+01  5.69404e+00
      H2  1.14856e+01  2.24075e+01  1.11686e+01
      H2  1.14018e+01  2.81439e+01  1.69722e+01
      H2  1.69561e+01  2.80798e+01  1.11127e+01
      H2  1.69389e+01  2.23532e+01  1.69549e+01
      H2  1.12810e+01  2.24601e+01  2.27568e+01
      H2  1.12456e+01  2.77850e+01  2.79069e+01
      H2  1.67781e+01  2.80809e+01  2.25973e+01
      H2  1.69955e+01  2.25246e+01  2.82028e+01
      H2  2.25698e+01  1.73335e-01 -5.65792e-02
      H2  2.23522e+01  5.81764e+00  5.89385e+00
      H2  2.83554e+01  5.73623e+00 -8.40214e-03
      H2  2.80158e+01  2.31115e-01  5.74017e+00
      H2  2.25067e+01  4.39031e-02  1.13345e+01
      H2  2.24387e+01  5.48802e+00  1.70367e+01
      H2  2.81628e+01  5.79055e+00  1.12536e+01
      H2  2.82464e+01 -2.32664e-01  1.67502e+01
      H2  2.24315e+01 -2.14364e-01  2.25406e+01
      H2  2.25490e+01  5.39955e+00  2.83047e+01
      H2  2.80271e+01  5.63446e+00  2.27154e+01
      H2  2.80533e+01 -4.05002e-01  2.79446e+01
      H2  2.24793e+01  1.13201e+01  1.18882e-01
      H2  2.23279e+01  1.63999e+01  5.54674e+00
      H2  2.82802e+01  1.67768e+01 -1.02071e-01
      H2  2.80491e+01  1.14632e+01  5.50407e+00
      H2  2.25128e+01  1.12866e+01  1.08097e+01
      H2  2.25309e+01  1.69087e+01  1.68398e+01
      H2  2.84177e+01  1.69559e+01  1.10122e+01
      H2  2.77770e+01  1.11196e+01  1.68864e+01
      H2  2.22206e+01  1.10448e+01  2.23807e+01
      H2  2.26496e+01  1.65404e+01  2.82142e+01
      H2  2.80462e+01  1.68791e+01  2.25798e+01
      H2  2.82990e+01  1.07903e+01  2.79043e+01
      H2  2.23348e+01  2.24402e+01 -2.47341e-02
      H2  2.24711e+01  2.80358e+01  5.22807e+00
      H2  2.84248e+01  2.82089e+01  3.57430e-02
      H2  2.81081e+01  2.23832e+01  5.48257e+00
      H2  2.22716e+01  2.25528e+01  1.14827e+01
      H2  2.25653e+01  2.77326e+01  1.68690e+01
      H2  2.82236e+01  2.81678e+01  1.11009e+01
      H2  2.81238e+01  2.25685e+01  1.70217e+01
      H2  2.25766e+01  2.25959e+01  2.24524e+01
      H2  2.22852e+01  2.81594e+01  2.82515e+01
      H2  2.80340e+01  2.82419e+01  2.23513e+01
      H2  2.81480e+01  2.26855e+01  2.84361e+01
108
# CELL(abcABC):   33.72582    33.72582    33.72582    90.00000    90.00000    90.00000  Step:           2  Bead:       0 positions{atomic_unit}  cell{atomic_unit}
      H2  2.93069e-01  2.64145e-01  2.47713e-01
      H2 -2.43047e-01  5.54679e+00  6.04853e+00
      H2  5.74962e+00  5.56328e+00  1.98702e-01
      H2  5.61510e+00 -2.80736e-01  5.58692e+00
      H2 -4.56593e-01 -4.32709e-02  1.11797e+01
      H2  1.68160e-01  5.67078e+00  1.68548e+01
      H2  5.59447e+00  5.45729e+00  1.11531e+01
      H2  5.46845e+00 -3.02886e-01  1.67586e+01
      H2 -1.08966e-01  1.60839e-01  2.24939e+01
      H2  3.30695e-02  5.56809e+00  2.82540e+01
      H2  5.62333e+00  5.65721e+00  2.24455e+01
      H2  5.61995e+00  2.10502e-01  2.79575e+01
      H2 -1.01955e-01  1.10454e+01 -3.14528e-01
      H2  2.99615e-02  1.67446e+01  5.76723e+00
      H2  5.72580e+00  1.69303e+01 -1.78095e-01
      H2  5.67002e+00  1.11053e+01  5.44515e+00
      H2  9.95069e-02  1.11723e+01  1.14135e+01
      H2 -1.98737e-01  1.67647e+01  1.66047e+01
      H2  5.35891e+00  1.65443e+01  1.07872e+01
      H2  5.94037e+00  1.12704e+01  1.69332e+01
      H2  5.78518e-02  1.13042e+01  2.25599e+01
      H2  2.36332e-01  1.69710e+01  2.78239e+01
      H2  5.67072e+00  1.67378e+01  2.26110e+01
      H2  5.60505e+00  1.12370e+01  2.81816e+01
      H2  1.14285e-02  2.22406e+01  1.91150e-01
      H2  2.25270e-02  2.82005e+01  5.65942e+00
      H2  5.53913e+00  2.81456e+01  1.38516e-01
      H2  5.35208e+00  2.25280e+01  5.98235e+00
      H2 -1.94179e-01  2.24435e+01  1.15476e+01
      H2  3.06553e-01  2.78308e+01  1.67941e+01
      H2  5.44495e+00  2.78550e+01  1.11888e+01
      H2  5.82418e+00  2.27538e+01  1.68969e+01
      H2  3.48087e-02  2.27108e+01  2.24726e+01
      H2  2.49780e-01  2.80559e+01  2.80275e+01
      H2  5.47508e+00  2.80276e+01  2.27287e+01
      H2  5.83727e+00  2.27025e+01  2.82514e+01
      H2  1.14067e+01  1.11926e-01 -2.47180e-01
      H2  1.11822e+01  5.60242e+00  5.30231e+00
      H2  1.68933e+01  5.90210e+00  2.22876e-02
      H2  1.69853e+01 -3.44119e-02  5.27033e+00
      H2  1.14567e+01  8.18750e-02  1.13674e+01
      H2  1.16230e+01  5.69693e+00  1.64499e+01
      H2  1.68499e+01  5.77681e+00  1.11573e+01
      H2  1.69805e+01  2.16511e-01  1.70250e+01
      H2  1.11916e+01  2.94042e-01  2.25500e+01
      H2  1.13610e+01  5.36157e+00  2.81646e+01
      H2  1.69556e+01  5.65046e+00  2.24973e+01
      H2  1.69075e+01 -2.00176e-02  2.78932e+01
      H2  1.10837e+01  1.10567e+01 -2.23916e-01
      H2  1.16412e+01  1.67163e+01  5.70252e+00
      H2  1.73831e+01  1.65475e+01  1.45677e-01
      H2  1.67102e+01  1.12614e+01  5.33920e+00
      H2  1.12891e+01  1.13545e+01  1.12316e+01
      H2  1.13034e+01  1.69676e+01  1.67176e+01
      H2  1.70607e+01  1.66858e+01  1.14011e+01
      H2  1.67124e+01  1.07447e+01  1.72769e+01
      H2  1.12061e+01  1.14103e+01  2.24093e+01
      H2  1.13675e+01  1.66751e+01  2.80899e+01
      H2  1.66854e+01  1.71527e+01  2.25736e+01
      H2  1.68025e+01  1.14062e+01  2.81460e+01
      H2  1.10809e+01  2.26789e+01  2.11850e-01
      H2  1.09937e+01  2.79341e+01  5.47722e+00
      H2  1.68675e+01  2.81584e+01 -6.85516e-02
      H2  1.69053e+01  2.26251e+01  5.69078e+00
      H2  1.14948e+01  2.23930e+01  1.11653e+01
      H2  1.14069e+01  2.81475e+01  1.69763e+01
      H2  1.69578e+01  2.80817e+01  1.11078e+01
      H2  1.69515e+01  2.23413e+01  1.69649e+01
      H2  1.12878e+01  2.24665e+01  2.27533e+01
      H2  1.12530e+01  2.77813e+01  2.78943e+01
      H2  1.67831e+01  2.80938e+01  2.26103e+01
      H2  1.69987e+01  2.25296e+01  2.81936e+01
      H2  2.25655e+01  1.80189e-01 -6.03347e-02
      H2  2.23509e+01  5.81357e+00  5.89724e+00
      H2  2.83573e+01  5.74105e+00 -2.01289e-03
      H2  2.80108e+01  2.35374e-01  5.75668e+00
      H2  2.25138e+01  5.56576e-02  1.13404e+01
      H2  2.24409e+01  5.46588e+00  1.70357e+01
      H2  2.81558e+01  5.79507e+00  1.12448e+01
      H2  2.82449e+01 -2.34954e-01  1.67501e+01
      H2  2.24339e+01 -2.05508e-01  2.25366e+01
      H2  2.25497e+01  5.38882e+00  2.83028e+01
      H2  2.80201e+01  5.64493e+00  2.27193e+01
      H2  2.80397e+01 -3.98473e-01  2.79533e+01
      H2  2.24861e+01  1.13204e+01  1.27856e-01
      H2  2.23262e+01  1.63892e+01  5.54523e+00
      H2  2.82935e+01  1.67808e+01 -9.97720e-02
      H2  2.80545e+01  1.14725e+01  5.49751e+00
      H2  2.25173e+01  1.12893e+01  1.07989e+01
      H2  2.25343e+01  1.69098e+01  1.68325e+01
      H2  2.84292e+01  1.69572e+01  1.10050e+01
      H2  2.77768e+01  1.11102e+01  1.68954e+01
      H2  2.22083e+01  1.10457e+01  2.23757e+01
      H2  2.26548e+01  1.65365e+01  2.82084e+01
      H2  2.80487e+01  1.68906e+01  2.25828e+01
      H2  2.82967e+01  1.07865e+01  2.78956e+01
      H2  2.23255e+01  2.24478e+01 -3.61133e-02
      H2  2.24655e+01  2.80280e+01  5.22001e+00
      H2  2.84298e+01  2.82077e+01  3.16255e-02
      H2  2.81049e+01  2.23711e+01  5.46624e+00
      H2  2.22727e+01  2.25533e+01  1.14927e+01
      H2  2.25727e+01  2.77220e+01  1.68646e+01
      H2  2.82239e+01  2.81739e+01  1.11031e+01
      H2  2.81250e+01  2.25664e+01  1.70227e+01
      H2  2.25877e+01  2.25979e+01  2.24604e+01
      H2  2.22885e+01  2.81618e+01  2.82427e+01
      H2  2.80281e+01  2.82382e+01  2.23456e+01
      H2  2.81565e+01  2.26850e+01  2.84319e+01
108
# CELL(abcABC):   33.72573    33.72573    33.72573    90.00000    90.00000    90.00000  Step:           3  Bead:       0 positions{atomic_unit}  cell{atomic_unit}
      H2  3.00638e-01  2.71486e-01  2.64134e-01
      H2 -2.46846e-01  5.53960e+00  6.06116e+00
      H2  5.75014e+00  5.56981e+00  1.96339e-01
      H2  5.61091e+00 -2.82113e-01  5.58378e+00
      H2 -4.68817e-01 -3.69732e-02  1.11733e+01
      H2  1.63003e-01  5.67231e+00  1.68587e+01
      H2  5.60034e+00  5.45030e+00  1.11449e+01
      H2  5.46984e+00 -3.07616e-01  1.67574e+01
      H2 -1.18029e-01  1.59071e-01  2.24959e+01
      H2  3.30354e-02  5.56804e+00  2.82507e+01
      H2  5.62009e+00  5.66122e+00  2.24485e+01
      H2  5.61792e+00  2.07588e-01  2.79576e+01
      H2 -1.03281e-01  1.10388e+01 -3.15988e-01
      H2  3.93016e-02  1.67469e+01  5.77801e+00
      H2  5.71523e+00  1.69380e+01 -1.76118e-01
      H2  5.66381e+00  1.11031e+01  5.45034e+00
      H2  9.52419e-02  1.11743e+01  1.14167e+01
      H2 -2.07297e-01  1.67682e+01  1.65884e+01
      H2  5.36241e+00  1.65335e+01  1.07775e+01
      H2  5.93633e+00  1.12779e+01  1.69301e+01
      H2  5.78671e-02  1.13117e+01  2.25660e+01
      H2  2.36918e-01  1.69792e+01  2.78245e+01
      H2  5.67333e+00  1.67347e+01  2.26235e+01
      H2  5.60067e+00  1.12399e+01  2.81808e+01
      H2  8.78728e-03  2.22399e+01  2.02294e-01
      H2  1.98632e-02  2.81933e+01  5.66175e+00
      H2  5.54587e+00  2.81508e+01  1.49051e-01
      H2  5.35241e+00  2.25309e+01  5.98607e+00
      H2 -1.99543e-01  2.24358e+01  1.15531e+01
      H2  2.99836e-01  2.78271e+01  1.67922e+01
      H2  5.44878e+00  2.78461e+01  1.11890e+01
      H2  5.82792e+00  2.27570e+01  1.69012e+01
      H2  3.40825e-02  2.27176e+01  2.24788e+01
      H2  2.43875e-01  2.80547e+01  2.80188e+01
      H2  5.46877e+00  2.80247e+01  2.27363e+01
      H2  5.84303e+00  2.27034e+01  2.82591e+01
      H2  1.14007e+01  1.19777e-01 -2.55692e-01
      H2  1.11884e+01  5.60980e+00  5.29723e+00
      H2  1.68845e+01  5.91392e+00  2.18534e-02
      H2  1.69819e+01 -4.17948e-02  5.26571e+00
      H2  1.14586e+01  8.27820e-02  1.13653e+01
      H2  1.16175e+01  5.70903e+00  1.64472e+01
      H2  1.68454e+01  5.76570e+00  1.11531e+01
      H2  1.69781e+01  2.00272e-01  1.70284e+01
      H2  1.11979e+01  2.92756e-01  2.25469e+01
      H2  1.13621e+01  5.35782e+00  2.81597e+01
      H2  1.69540e+01  5.65033e+00  2.24963e+01
      H2  1.69086e+01 -1.86308e-02  2.78919e+01
      H2  1.10786e+01  1.10521e+01 -2.23302e-01
      H2  1.16379e+01  1.67190e+01  5.70310e+00
      H2  1.73881e+01  1.65427e+01  1.46421e-01
      H2  1.67186e+01  1.12559e+01  5.33001e+00
      H2  1.12773e+01  1.13598e+01  1.12337e+01
      H2  1.13076e+01  1.69722e+01  1.67244e+01
      H2  1.70637e+01  1.66703e+01  1.14116e+01
      H2  1.67092e+01  1.07374e+01  1.72764e+01
      H2  1.12122e+01  1.14160e+01  2.24029e+01
      H2  1.13639e+01  1.66727e+01  2.80885e+01
      H2  1.66808e+01  1.71535e+01  2.25775e+01
      H2  1.68033e+01  1.14037e+01  2.81455e+01
      H2  1.10885e+01  2.26810e+01  2.18840e-01
      H2  1.09838e+01  2.79326e+01  5.47305e+00
      H2  1.68521e+01  2.81604e+01 -6.27072e-02
      H2  1.69204e+01  2.26314e+01  5.68768e+00
      H2  1.15041e+01  2.23778e+01  1.11623e+01
      H2  1.14120e+01  2.81512e+01  1.69804e+01
      H2  1.69597e+01  2.80837e+01  1.11027e+01
      H2  1.69637e+01  2.23296e+01  1.69755e+01
      H2  1.12944e+01  2.24728e+01  2.27496e+01
      H2  1.12600e+01  2.77773e+01  2.78820e+01
      H2  1.67882e+01  2.81071e+01  2.26230e+01
      H2  1.70020e+01  2.25351e+01  2.81840e+01
      H2  2.25616e+01  1.87629e-01 -6.39071e-02
      H2  2.23501e+01  5.80960e+00  5.90040e+00
      H2  2.83592e+01  5.74626e+00  4.37801e-03
      H2  2.80056e+01  2.40009e-01  5.77318e+00
      H2  2.25208e+01  6.73874e-02  1.13465e+01
      H2  2.24435e+01  5.44357e+00  1.70345e+01
      H2  2.81488e+01  5.79941e+00  1.12364e+01
      H2  2.82427e+01 -2.37297e-01  1.67496e+01
      H2  2.24367e+01 -1.96704e-01  2.25324e+01
      H2  2.25503e+01  5.37837e+00  2.83008e+01
      H2  2.80132e+01  5.65541e+00  2.27232e+01
      H2  2.80262e+01 -3.91956e-01  2.79620e+01
      H2  2.24926e+01  1.13208e+01  1.36593e-01
      H2  2.23239e+01  1.63783e+01  5.54397e+00
      H2  2.83072e+01  1.67846e+01 -9.73970e-02
      H2  2.80603e+01  1.14816e+01  5.49091e+00
      H2  2.25218e+01  1.12920e+01  1.07884e+01
      H2  2.25380e+01  1.69105e+01  1.68245e+01
      H2  2.84404e+01  1.69586e+01  1.09978e+01
      H2  2.77764e+01  1.11009e+01  1.69045e+01
      H2  2.21958e+01  1.10466e+01  2.23711e+01
      H2  2.26599e+01  1.65325e+01  2.82028e+01
      H2  2.80511e+01  1.69017e+01  2.25855e+01
      H2  2.82944e+01  1.07825e+01  2.78866e+01
      H2  2.23164e+01  2.24556e+01 -4.74516e-02
      H2  2.24602e+01  2.80200e+01  5.21171e+00
      H2  2.84352e+01  2.82070e+01  2.72349e-02
      H2  2.81019e+01  2.23587e+01  5.44954e+00
      H2  2.22736e+01  2.25538e+01  1.15025e+01
      H2  2.25801e+01  2.77114e+01  1.68604e+01
      H2  2.82240e+01  2.81800e+01  1.11052e+01
      H2  2.81261e+01  2.25641e+01  1.70236e+01
      H2  2.25989e+01  2.26003e+01  2.24681e+01
      H2  2.22918e+01  2.81640e+01  2.82340e+01
      H2  2.80221e+01  2.82350e+01  2.23409e+01
      H2  2.81651e+01  2.26846e+01  2.84274e+01
108
# CELL(abcABC):   33.72559    33.72559    33.72559    90.00000    90.00000    90.00000  Step:           4  Bead:       0 positions{atomic_unit}  cell{atomic_unit}
      H2  3.08434e-01  2.78638e-01  2.80590e-01
      H2 -2.50891e-01  5.53230e+00  6.07370e+00
      H2  5.75061e+00  5.57615e+00  1.94391e-01
      H2  5.60653e+00 -2.83276e-01  5.58052e+00
      H2 -4.81090e-01 -3.06779e-02  1.11671e+01
      H2  1.58427e-01  5.67366e+00  1.68628e+01
      H2  5.60593e+00  5.44342e+00  1.11369e+01
      H2  5.47172e+00 -3.12023e-01  1.67565e+01
      H2 -1.27055e-01  1.57128e-01  2.24983e+01
      H2  3.25621e-02  5.56824e+00  2.82475e+01
      H2  5.61679e+00  5.66538e+00  2.24512e+01
      H2  5.61553e+00  2.04790e-01  2.79574e+01
      H2 -1.04125e-01  1.10322e+01 -3.17714e-01
      H2  4.88030e-02  1.67489e+01  5.78877e+00
      H2  5.70420e+00  1.69460e+01 -1.73988e-01
      H2  5.65766e+00  1.11008e+01  5.45572e+00
      H2  9.11503e-02  1.11759e+01  1.14202e+01
      H2 -2.16352e-01  1.67716e+01  1.65718e+01
      H2  5.36610e+00  1.65231e+01  1.07676e+01
      H2  5.93266e+00  1.12851e+01  1.69270e+01
      H2  5.78629e-02  1.13187e+01  2.25720e+01
      H2  2.37506e-01  1.69870e+01  2.78252e+01
      H2  5.67620e+00  1.67313e+01  2.26361e+01
      H2  5.59637e+00  1.12431e+01  2.81803e+01
      H2  5.83545e-03  2.22388e+01  2.13526e-01
      H2  1.68197e-02  2.81861e+01  5.66416e+00
      H2  5.55301e+00  2.81563e+01  1.59655e-01
      H2  5.35287e+00  2.25335e+01  5.98944e+00
      H2 -2.04977e-01  2.24279e+01  1.15579e+01
      H2  2.93225e-01  2.78236e+01  1.67907e+01
      H2  5.45271e+00  2.78374e+01  1.11895e+01
      H2  5.83190e+00  2.27604e+01  1.69052e+01
      H2  3.34568e-02  2.27243e+01  2.24845e+01
      H2  2.38003e-01  2.80539e+01  2.80098e+01
      H2  5.46229e+00  2.80224e+01  2.27437e+01
      H2  5.84856e+00  2.27039e+01  2.82671e+01
      H2  1.13946e+01  1.27765e-01 -2.63733e-01
      H2  1.11944e+01  5.61712e+00  5.29185e+00
      H2  1.68758e+01  5.92588e+00  2.12976e-02
      H2  1.69783e+01 -4.87637e-02  5.26089e+00
      H2  1.14603e+01  8.38793e-02  1.13635e+01
      H2  1.16120e+01  5.72133e+00  1.64447e+01
      H2  1.68413e+01  5.75476e+00  1.11487e+01
      H2  1.69754e+01  1.83826e-01  1.70318e+01
      H2  1.12046e+01  2.91256e-01  2.25441e+01
      H2  1.13635e+01  5.35432e+00  2.81543e+01
      H2  1.69522e+01  5.64987e+00  2.24947e+01
      H2  1.69094e+01 -1.70382e-02  2.78900e+01
      H2  1.10736e+01  1.10472e+01 -2.22721e-01
      H2  1.16344e+01  1.67215e+01  5.70399e+00
      H2  1.73929e+01  1.65382e+01  1.46753e-01
      H2  1.67269e+01  1.12506e+01  5.32102e+00
      H2  1.12655e+01  1.13653e+01  1.12359e+01
      H2  1.13112e+01  1.69766e+01  1.67310e+01
      H2  1.70665e+01  1.66545e+01  1.14218e+01
      H2  1.67060e+01  1.07304e+01  1.72757e+01
      H2  1.12181e+01  1.14221e+01  2.23966e+01
      H2  1.13605e+01  1.66699e+01  2.80881e+01
      H2  1.66760e+01  1.71542e+01  2.25813e+01
      H2  1.68036e+01  1.14008e+01  2.81449e+01
      H2  1.10959e+01  2.26832e+01  2.25615e-01
      H2  1.09736e+01  2.79314e+01  5.46861e+00
      H2  1.68372e+01  2.81622e+01 -5.68642e-02
      H2  1.69354e+01  2.26383e+01  5.68433e+00
      H2  1.15133e+01  2.23633e+01  1.11590e+01
      H2  1.14169e+01  2.81548e+01  1.69846e+01
      H2  1.69616e+01  2.80856e+01  1.10976e+01
      H2  1.69753e+01  2.23176e+01  1.69861e+01
      H2  1.13009e+01  2.24789e+01  2.27460e+01
      H2  1.12671e+01  2.77728e+01  2.78696e+01
      H2  1.67936e+01  2.81204e+01  2.26355e+01
      H2  1.70056e+01  2.25402e+01  2.81750e+01
      H2  2.25576e+01  1.95173e-01 -6.80593e-02
      H2  2.23493e+01  5.80584e+00  5.90418e+00
      H2  2.83605e+01  5.75145e+00  1.04871e-02
      H2  2.80008e+01  2.45058e-01  5.78984e+00
      H2  2.25278e+01  7.91220e-02  1.13527e+01
      H2  2.24462e+01  5.42133e+00  1.70333e+01
      H2  2.81416e+01  5.80363e+00  1.12275e+01
      H2  2.82406e+01 -2.39809e-01  1.67491e+01
      H2  2.24395e+01 -1.88216e-01  2.25284e+01
      H2  2.25514e+01  5.36769e+00  2.82984e+01
      H2  2.80059e+01  5.66597e+00  2.27270e+01
      H2  2.80122e+01 -3.85209e-01  2.79704e+01
      H2  2.24994e+01  1.13206e+01  1.45205e-01
      H2  2.23212e+01  1.63671e+01  5.54268e+00
      H2  2.83205e+01  1.67884e+01 -9.53717e-02
      H2  2.80655e+01  1.14909e+01  5.48458e+00
      H2  2.25265e+01  1.12950e+01  1.07778e+01
      H2  2.25418e+01  1.69109e+01  1.68167e+01
      H2  2.84514e+01  1.69595e+01  1.09906e+01
      H2  2.77766e+01  1.10912e+01  1.69132e+01
      H2  2.21833e+01  1.10472e+01  2.23670e+01
      H2  2.26653e+01  1.65283e+01  2.81973e+01
      H2  2.80542e+01  1.69126e+01  2.25877e+01
      H2  2.82921e+01  1.07784e+01  2.78778e+01
      H2  2.23075e+01  2.24633e+01 -5.84520e-02
      H2  2.24549e+01  2.80119e+01  5.20350e+00
      H2  2.84401e+01  2.82061e+01  2.28969e-02
      H2  2.80993e+01  2.23463e+01  5.43302e+00
      H2  2.22748e+01  2.25542e+01  1.15123e+01
      H2  2.25876e+01  2.77010e+01  1.68563e+01
      H2  2.82242e+01  2.81860e+01  1.11074e+01
      H2  2.81268e+01  2.25618e+01  1.70245e+01
      H2  2.26100e+01  2.26029e+01  2.24756e+01
      H2  2.22948e+01  2.81660e+01  2.82254e+01
      H2  2.80160e+01  2.82320e+01  2.23363e+01
      H2  2.81739e+01  2.26841e+01  2.84229e+01
108
# CELL(abcABC):   33.72538    33.72538    33.72538    90.00000    90.00000    90.00000  Step:           5  Bead:       0 positions{atomic_unit}  cell{atomic_unit}
      H2  3.15794e-01  2.85685e-01  2.97058e-01
      H2 -2.55050e-01  5.52480e+00  6.08627e+00
      H2  5.75100e+00  5.58262e+00  1.92433e-01
      H2  5.60212e+00 -2.85035e-01  5.57698e+00
      H2 -4.93594e-01 -2.45825e-02  1.11609e+01
      H2  1.53196e-01  5.67471e+00  1.68671e+01
      H2  5.61139e+00  5.43674e+00  1.11284e+01
      H2  5.47361e+00 -3.16658e-01  1.67552e+01
      H2 -1.36001e-01  1.55136e-01  2.25007e+01
      H2  3.22697e-02  5.56841e+00  2.82447e+01
      H2  5.61344e+00  5.66951e+00  2.24537e+01
      H2  5.61363e+00  2.01467e-01  2.79567e+01
      H2 -1.05244e-01  1.10258e+01 -3.19743e-01
      H2  5.89402e-02  1.67506e+01  5.79940e+00
      H2  5.69281e+00  1.69541e+01 -1.72060e-01
      H2  5.65187e+00  1.10989e+01  5.46053e+00
      H2  8.71780e-02  1.11777e+01  1.14229e+01
      H2 -2.25575e-01  1.67748e+01  1.65553e+01
      H2  5.37024e+00  1.65121e+01  1.07580e+01
      H2  5.92910e+00  1.12924e+01  1.69237e+01
      H2  5.73976e-02  1.13257e+01  2.25784e+01
      H2  2.38157e-01  1.69947e+01  2.78258e+01
      H2  5.67885e+00  1.67280e+01  2.26491e+01
      H2  5.59177e+00  1.12465e+01  2.81799e+01
      H2  2.96989e-03  2.22375e+01  2.24412e-01
      H2  1.36992e-02  2.81784e+01  5.66648e+00
      H2  5.56033e+00  2.81618e+01  1.69943e-01
      H2  5.35349e+00  2.25362e+01  5.99322e+00
      H2 -2.10197e-01  2.24195e+01  1.15624e+01
      H2  2.86267e-01  2.78202e+01  1.67895e+01
      H2  5.45593e+00  2.78286e+01  1.11897e+01
      H2  5.83577e+00  2.27636e+01  1.69095e+01
      H2  3.28828e-02  2.27310e+01  2.24898e+01
      H2  2.32248e-01  2.80532e+01  2.80013e+01
      H2  5.45597e+00  2.80204e+01  2.27511e+01
      H2  5.85367e+00  2.27041e+01  2.82748e+01
      H2  1.13886e+01  1.35769e-01 -2.71382e-01
      H2  1.12004e+01  5.62449e+00  5.28668e+00
      H2  1.68672e+01  5.93806e+00  2.08532e-02
      H2  1.69749e+01 -5.50205e-02  5.25567e+00
      H2  1.14617e+01  8.51306e-02  1.13613e+01
      H2  1.16063e+01  5.73304e+00  1.64422e+01
      H2  1.68366e+01  5.74415e+00  1.11441e+01
      H2  1.69724e+01  1.67177e-01  1.70353e+01
      H2  1.12111e+01  2.90065e-01  2.25412e+01
      H2  1.13648e+01  5.35040e+00  2.81490e+01
      H2  1.69508e+01  5.64921e+00  2.24932e+01
      H2  1.69100e+01 -1.49531e-02  2.78885e+01
      H2  1.10692e+01  1.10418e+01 -2.22011e-01
      H2  1.16307e+01  1.67240e+01  5.70463e+00
      H2  1.73977e+01  1.65332e+01  1.47372e-01
      H2  1.67354e+01  1.12456e+01  5.31257e+00
      H2  1.12537e+01  1.13713e+01  1.12379e+01
      H2  1.13148e+01  1.69809e+01  1.67373e+01
      H2  1.70691e+01  1.66391e+01  1.14319e+01
      H2  1.67028e+01  1.07234e+01  1.72751e+01
      H2  1.12238e+01  1.14278e+01  2.23900e+01
      H2  1.13575e+01  1.66667e+01  2.80878e+01
      H2  1.66716e+01  1.71552e+01  2.25850e+01
      H2  1.68041e+01  1.13976e+01  2.81443e+01
      H2  1.11035e+01  2.26849e+01  2.32895e-01
      H2  1.09632e+01  2.79299e+01  5.46454e+00
      H2  1.68225e+01  2.81635e+01 -5.10410e-02
      H2  1.69500e+01  2.26454e+01  5.68084e+00