<simulation verbosity='medium'>
   <prng>
      <seed>31415</seed>
      <state shape='(624)'>
       [ 611306417, 1046848295, 3628556282, 1727770728, 3228775431, 
         221750652, 2251711836, 1630595775, 3294153158, 224765705, 
         1389615983, 3149508132, 2015395856, 3073408619, 2229658910, 
         451726940, 3384361834, 3585154627, 3020276518, 863635549, 
         2382606375, 3054837644, 3934528625, 3891070483, 2464477934, 
         463329270, 2404491144, 1604496477, 3365547566, 4215387559, 
         1631367435, 1668080258, 26245714, 3548250253, 3817713779, 
         2518293485, 326382923, 1146338070, 307609362, 2652554295, 
         38090823, 554122062, 1735967227, 2061642371, 3845424325, 
         1174164994, 1976522255, 2031642068, 3660052719, 891585386, 
         460022474, 2852380826, 4123100873, 1932803874, 965808814, 
         509368222, 1526866883, 2493760316, 1272570622, 711828273, 
         2899340043, 1193108223, 1269630099, 3978846603, 2194014437, 
         2436867997, 2372272552, 618434779, 1428051551, 2807390728, 
         1662869279, 2104237181, 2340881282, 30722427, 1699887091, 
         3489272419, 2083684218, 937741068, 3250554397, 608200886, 
         3489839896, 518142050, 2873433100, 2640705775, 650892135, 
         3261057094, 73410100, 413328863, 3819654155, 141680667, 
         1037908972, 1821717151, 3121734490, 612141992, 3451159193, 
         1096224351, 845743452, 3437841170, 2150697352, 246243285, 
         1222250355, 929284488, 3579883076, 3546630680, 1636666356, 
         583939492, 1146532748, 185875731, 1912977413, 3948873146, 
         2454611685, 89226285, 2643443146, 463743940, 717286744, 
         2322697797, 3376223246, 3464755456, 3159953017, 2104685701, 
         1168583173, 1594379570, 740248890, 1431512383, 2566206828, 
         878029171, 213339742, 1707542138, 975090093, 4266451611, 
         2791198436, 3343936832, 2347480874, 1036247601, 1678162457, 
         3971609205, 1663129999, 3008599019, 1173878036, 3353977860, 
         1214239299, 3561885742, 563652637, 3143187251, 747954513, 
         3593603759, 1999320656, 2448522545, 1591732043, 4263291128, 
         3736987938, 311687052, 1221008109, 370110318, 3687315669, 
         8048287, 3249160180, 1147323178, 3974674272, 3223694230, 
         3623706486, 712841071, 1714278603, 1143535806, 3422892355, 
         2093185107, 3639593626, 3741827898, 2940958279, 1434016158, 
         3112141438, 3318655760, 2541830125, 3052702585, 2879527945, 
         3361419238, 2559317660, 243724587, 2681216549, 3042690792, 
         1647518323, 3210242545, 164742636, 3088414289, 2623010921, 
         2994850571, 34215607, 80818476, 3340202422, 514582419, 
         3245324391, 4233927944, 1990677138, 1696009344, 2944695361, 
         564044692, 2924933049, 3074356490, 2786739229, 1221602735, 
         3716377653, 1814005562, 1939253384, 2504457779, 3655185960, 
         3120136449, 938316877, 1306735745, 3849938937, 3591138582, 
         637104179, 1645080995, 3400579507, 130002784, 2438778580, 
         3535615050, 859571178, 2541790765, 602107885, 1218455690, 
         1764548816, 3581584200, 3379764198, 2092944258, 183546902, 
         1859966458, 691830178, 4061819406, 2111912656, 2939340669, 
         3698005289, 619128100, 3276213180, 2258918367, 3598847998, 
         575144479, 3165113352, 2135023011, 2203207549, 3558194145, 
         3327222738, 107817948, 1048366621, 1864667236, 4111044579, 
         318758361, 3568970054, 2603479854, 478997095, 2823119869, 
         3838848411, 1787225173, 1832013870, 393495617, 2733941563, 
         3222704442, 1237443891, 1850977232, 23910790, 2103475991, 
         1808722217, 3430089712, 1996021672, 4198885321, 2984318591, 
         1872592342, 2597987364, 19011161, 3592785085, 1111267106, 
         1082673101, 2622226938, 3483567993, 2783389325, 2739069979, 
         1160260093, 88984938, 2032081671, 2696308885, 9097593, 
         1853618620, 4292001482, 2361412389, 2592238598, 616542138, 
         2296431092, 302278425, 3301118539, 850783048, 308105537, 
         3042150034, 3619664093, 409939514, 1569630210, 1919316964, 
         1623741589, 504536863, 3233210222, 994050657, 765776139, 
         200880239, 4131954490, 104439867, 1255896022, 3967350570, 
         2483222287, 3342214095, 409907825, 3519378201, 4018085817, 
         1259928400, 3371344982, 4031447746, 1313233279, 1419802928, 
         2500605310, 365803978, 1095450530, 3555433393, 3034505320, 
         2289609717, 3608407282, 2473043209, 1849572356, 3743465411, 
         1846733519, 3475497302, 4182215602, 4026328673, 2421806827, 
         4265637206, 173407955, 534428844, 2013426328, 75911835, 
         353388703, 2689307792, 4095427973, 3651346701, 1224218042, 
         4067454549, 1396431822, 3819229292, 2525198747, 1033113961, 
         654357993, 3072083219, 378379739, 1708217968, 2432621305, 
         1737771713, 2212716062, 2742360629, 1392429871, 3101772580, 
         2208404449, 2287204986, 2746372087, 1988569990, 128479876, 
         2917349358, 642579076, 3877898843, 3542300056, 1763636184, 
         1418253422, 3639852805, 3589301861, 3282240179, 2965138288, 
         647019019, 4291533098, 2272602472, 1492686860, 1145034477, 
         4276816179, 1171220928, 2683577296, 1959848034, 3186414092, 
         1051071932, 1706992844, 2114429165, 1520537800, 3428947480, 
         656805279, 3858373702, 1783972033, 650826539, 3610904866, 
         197740099, 2844570505, 2356831624, 3908958820, 3329992054, 
         3808773875, 4000538173, 3431566499, 3845652864, 1209646830, 
         1269259654, 3875150489, 1365574304, 2269032336, 2578330908, 
         1252299753, 2452893595, 4125274029, 895195929, 1999002746, 
         508101896, 3709851782, 2547834405, 3136289565, 3462093512, 
         2875413944, 2600282684, 1349883038, 2333951041, 2814965524, 
         1878736267, 2669847394, 232211036, 1710836772, 1864535208, 
         1206305495, 4089600533, 191614158, 1637547737, 894826496, 
         854546804, 3253486524, 2119332347, 130606947, 4226722133, 
         1207925696, 2187582332, 687434761, 4137138266, 3232245953, 
         3554728439, 1556994328, 3145062133, 1671359361, 93423391, 
         3291243744, 2154080011, 1883793218, 4243093529, 812676069, 
         288082358, 1192082332, 632066796, 665312108, 1509574166, 
         117459526, 1611469961, 816015827, 1162739748, 3380673726, 
         1335874030, 1372658801, 1225433445, 3728670026, 3168239488, 
         1081408310, 3178695960, 3586029755, 1113797234, 1481865330, 
         2513398563, 646538119, 1105369552, 2091558451, 2578194426, 
         744957266, 4055491838, 4189676591, 2934321070, 1203566636, 
         1980905654, 1940398351, 2385910740, 2884703721, 1831089916, 
         2782815264, 3021067718, 2687433783, 1582284331, 3658956721, 
         190620044, 3712950174, 2725419523, 2769142937, 1655535078, 
         52424082, 3136853612, 847513274, 4206655295, 1971905833, 
         1850776493, 2805930357, 2697497534, 1719851427, 4097586153, 
         2527725534, 2045045461, 2922230729, 1714513790, 3626940323, 
         2711685839, 568700979, 3134347945, 1936510924, 2290106169, 
         516566977, 1322440364, 844683337, 2764119318, 2797952737, 
         3554114844, 2623540886, 1646187586, 553414554, 1201913933, 
         3085191938, 540676047, 2138641171, 2675805035, 1503160041, 
         502035303, 3541585419, 4213729124, 3770552544, 2148203100, 
         921891588, 2449639035, 2387180092, 2787004616, 530643508, 
         1291025713, 3480874853, 1772921031, 512869896, 890204387, 
         73454941, 2856886601, 3094225942, 1903982728, 1834260479, 
         1930999923, 2207322820, 3042817315, 35752590, 1138814721, 
         2845484733, 674509540, 982907680, 3543212364, 1247005028, 
         3330898719, 2220901464, 3533754111, 905240757, 1975567521, 
         4151213849, 4121744136, 3847524659, 900186705, 828324285, 
         4057507324, 3959334677, 2587832050, 1685362316, 734825163, 
         2124833237, 1414377924, 996211605, 1653974655, 4222680213, 
         2216705780, 2269732684, 3735585872, 1327352081, 94058528, 
         4238480339, 2954669528, 3575990021, 2953196385, 1905850860, 
         2934030885, 2074552461, 2228215753, 1380608177, 1820131876, 
         1272357030, 3286117652, 4101581006, 1985356549, 2662556495, 
         483629413, 1238476234, 1668791680, 3263804482, 3715265311, 
         1706203335, 1620177336, 3987045730, 3671201119, 208995578, 
         760810912, 2520730391, 172190614, 553097676, 2449786778, 
         71182696, 3220672213, 60156708, 3528005406, 1390475019, 
         3854999964, 2009228512, 2935703738, 1699482426 ]
      </state>
      <set_pos>216</set_pos>
   </prng>
   <output prefix='ref_simulation'>
      <properties shape='(6)'>
       [ step, time{picosecond}, conserved, temperature{kelvin}, potential, 
         volume ]
      </properties>
      <trajectory filename='pos'>positions</trajectory>
      <trajectory filename='committee_pot' extra_type='committee_pot'>extras</trajectory>
      <trajectory filename='committee_force' extra_type='committee_force'>extras</trajectory>
      <trajectory filename='committee_virial' extra_type='committee_virial'>extras</trajectory>
      <trajectory filename='committee_sigma' extra_type='committee_uncertainty'>extras</trajectory>
      <checkpoint stride='100'>1</checkpoint>
   </output>
   <total_steps>10</total_steps>
   <ffcommittee name='committee' threaded=' True'>
      <weights shape='(3)'> [   1.00000000e+00,   1.00000000e+00,   1.00000000e+00 ] </weights>
      <active_thresh>  4.77741238e-02</active_thresh>
      <active_output>active</active_output>
      <ffsocket mode='unix' matching='any' name='driver-1'>
         <address>localhost_1</address>
         <latency>  2.00000000e-04</latency>
      </ffsocket>
      <ffsocket mode='unix' matching='any' name='driver-2'>
         <address>localhost_2</address>
         <latency>  2.00000000e-04</latency>
      </ffsocket>
      <ffsocket mode='unix' matching='any' name='driver-3'>
         <address>localhost_3</address>
         <latency>  2.00000000e-04</latency>
      </ffsocket>
   </ffcommittee>
   <system>
      <forces>
         <force forcefield='committee'>
         </force>
      </forces>
      <ensemble>
         <temperature>  9.50044560e-05</temperature>
         <pressure>  3.39882738e-07</pressure>
         <eens>  2.31758922e-04</eens>
         <hamiltonian_weights shape='(1)'> [   1.00000000e+00 ] </hamiltonian_weights>
      </ensemble>
      <motion mode='dynamics'>
         <dynamics mode='npt'>
            <thermostat mode='langevin'>
               <tau>  4.13413730e+04</tau>
            </thermostat>
            <barostat mode='isotropic'>
               <thermostat mode='langevin'>
                  <tau>  4.13413730e+04</tau>
               </thermostat>
               <tau>  8.26827460e+04</tau>
               <p shape='(1)'> [   0.00000000e+00 ] </p>
            </barostat>
            <timestep>  4.13413730e+01</timestep>
            <nmts shape='(1)'> [ 1 ] </nmts>
         </dynamics>
      </motion>
      <beads natoms='108' nbeads='1'>
         <q shape='(1, 324)'>
          [   2.77789737e-01,   2.49443845e-01,   2.15428775e-01,  -2.36215763e-01,   5.56146391e+00, 
              6.02444681e+00,   5.74854680e+00,   5.55012556e+00,   2.02200693e-01,   5.62382487e+00, 
             -2.79679463e-01,   5.59358926e+00,  -4.32747277e-01,  -5.66917830e-02,   1.11928477e+01, 
              1.77634253e-01,   5.66728857e+00,   1.68469082e+01,   5.58225090e+00,   5.47075706e+00, 
              1.11682813e+01,   5.46508788e+00,  -2.92907546e-01,   1.67618705e+01,  -9.07068528e-02, 
              1.64406171e-01,   2.24896303e+01,   3.21253437e-02,   5.56902282e+00,   2.82608538e+01, 
              5.62949405e+00,   5.64839131e+00,   2.24404974e+01,   5.62382487e+00,   2.15428775e-01, 
              2.79566079e+01,  -1.00155483e-01,   1.10586771e+01,  -3.11804807e-01,   1.13383566e-02, 
              1.67391938e+01,   5.74476734e+00,   5.74665707e+00,   1.69149383e+01,  -1.81413706e-01, 
              5.68240638e+00,   1.11096997e+01,   5.43485226e+00,   1.07714388e-01,   1.11682813e+01, 
              1.14063867e+01,  -1.83303432e-01,   1.67562013e+01,   1.66371486e+01,   5.35170432e+00, 
              1.65653390e+01,   1.08073436e+01,   5.94885776e+00,   1.12552087e+01,   1.69395048e+01, 
              5.85815091e-02,   1.12892237e+01,   2.25482118e+01,   2.34326036e-01,   1.69546226e+01, 
              2.78224374e+01,   5.66539885e+00,   1.67448630e+01,   2.25860063e+01,   5.61437624e+00, 
              1.12306422e+01,   2.81833751e+01,   1.70075349e-02,   2.22420762e+01,   1.68185623e-01, 
              2.83458915e-02,   2.82155004e+01,   5.65406049e+00,   5.52555912e+00,   2.81361319e+01, 
              1.17163018e-01,   5.35170432e+00,   2.25217557e+01,   5.97531393e+00,  -1.83303432e-01, 
              2.24593947e+01,   1.15367778e+01,   3.19363711e-01,   2.78375552e+01,   1.67977753e+01, 
              5.43674199e+00,   2.78734600e+01,   1.11890682e+01,   5.81657694e+00,   2.27485228e+01, 
              1.68865924e+01,   3.59047959e-02,   2.26975002e+01,   2.24593947e+01,   2.62671928e-01, 
              2.80586531e+01,   2.80454251e+01,   5.48776459e+00,   2.80340867e+01,   2.27145077e+01, 
              5.82602557e+00,   2.27012796e+01,   2.82362874e+01,   1.14177251e+01,   9.63760311e-02, 
             -2.30546584e-01,   1.11701710e+01,   5.58792008e+00,   5.31202007e+00,   1.69111589e+01, 
              5.87893790e+00,   2.45664393e-02,   1.69905274e+01,  -1.88972610e-02,   5.27989472e+00, 
              1.14536299e+01,   7.93684962e-02,   1.13723717e+01,   1.16331539e+01,   5.67295775e+00, 
              1.64557349e+01,   1.68601363e+01,   5.79956940e+00,   1.11663915e+01,   1.69848582e+01, 
              2.49443845e-01,   1.70188733e+01,   1.11796196e+01,   2.96686998e-01,   2.25557707e+01, 
              1.13591436e+01,   5.36871185e+00,   2.81739264e+01,   1.69584020e+01,   5.65028104e+00, 
              2.24990789e+01,   1.69054897e+01,  -2.26767132e-02,   2.78961367e+01,   1.10945819e+01, 
              1.10662360e+01,  -2.24877406e-01,   1.16482717e+01,   1.67108479e+01,   5.70130364e+00, 
              1.73722520e+01,   1.65577801e+01,   1.43619184e-01,   1.66938404e+01,   1.12722162e+01, 
              5.35737349e+00,   1.13137902e+01,   1.13440258e+01,   1.12268628e+01,   1.12948929e+01, 
              1.69584020e+01,   1.67032890e+01,   1.70547781e+01,   1.67165171e+01,   1.13799306e+01, 
              1.67202965e+01,   1.07601004e+01,   1.72777657e+01,   1.11947374e+01,   1.13988278e+01, 
              2.24216002e+01,   1.13742614e+01,   1.66806123e+01,   2.80926682e+01,   1.66957301e+01, 
              1.71511541e+01,   2.25652194e+01,   1.68015548e+01,   1.14120559e+01,   2.81474703e+01, 
              1.10662360e+01,   2.26729337e+01,   1.98421241e-01,   1.10133237e+01,   2.79358209e+01, 
              5.48587487e+00,   1.68979308e+01,   2.81550292e+01,  -7.93684962e-02,   1.68752541e+01, 
              2.26124625e+01,   5.69752419e+00,   1.14763066e+01,   2.24216002e+01,   1.11720607e+01, 
              1.13969381e+01,   2.81399114e+01,   1.69678507e+01,   1.69546226e+01,   2.80775504e+01, 
              1.11172586e+01,   1.69262767e+01,   2.23649084e+01,   1.69451739e+01,   1.12741059e+01, 
              2.24537255e+01,   2.27598611e+01,   1.12382011e+01,   2.77884223e+01,   2.79188134e+01, 
              1.67732089e+01,   2.80681018e+01,   2.25841166e+01,   1.69924171e+01,   2.25198659e+01, 
              2.82117209e+01,   2.25746680e+01,   1.66295897e-01,  -5.29123308e-02,   2.23535700e+01, 
              5.82224611e+00,   5.89027625e+00,   2.83534504e+01,   5.73153926e+00,  -1.51178088e-02, 
              2.80208586e+01,   2.26767132e-01,   5.72398036e+00,   2.24990789e+01,   3.21253437e-02, 
              1.13289080e+01,   2.24367180e+01,   5.51044131e+00,   1.70377705e+01,   2.81701470e+01, 
              5.78634132e+00,   1.12627676e+01,   2.82476257e+01,  -2.30546584e-01,   1.67505322e+01, 
              2.24291591e+01,  -2.22987680e-01,   2.25444324e+01,   2.25482118e+01,   5.41028582e+00, 
              2.83062073e+01,   2.80340867e+01,   5.62382487e+00,   2.27107283e+01,   2.80662120e+01, 
             -4.11960290e-01,   2.79358209e+01,   2.24726228e+01,   1.13194593e+01,   1.09604114e-01, 
              2.23290036e+01,   1.64103815e+01,   5.54823583e+00,   2.82665230e+01,   1.67732089e+01, 
             -1.03934936e-01,   2.80435353e+01,   1.14536299e+01,   5.51044131e+00,   2.25085276e+01, 
              1.12835545e+01,   1.08205716e+01,   2.25274248e+01,   1.69073794e+01,   1.68469082e+01, 
              2.84063627e+01,   1.69546226e+01,   1.10189929e+01,   2.77770839e+01,   1.11285970e+01, 
              1.68771438e+01,   2.22326276e+01,   1.10435593e+01,   2.23856954e+01,   2.26445879e+01, 
              1.65445520e+01,   2.82192799e+01,   2.80435353e+01,   1.68676952e+01,   2.25765577e+01, 
              2.83005381e+01,   1.07941155e+01,   2.79131442e+01,   2.23441214e+01,   2.24329385e+01, 
             -1.32280827e-02,   2.24764022e+01,   2.80435353e+01,   5.23643102e+00,   2.84195908e+01, 
              2.82098312e+01,   3.96842481e-02,   2.81115655e+01,   2.23951440e+01,   5.49910295e+00, 
              2.22704221e+01,   2.25519913e+01,   1.14725272e+01,   2.25576605e+01,   2.77430689e+01, 
              1.68733643e+01,   2.82230593e+01,   2.81606983e+01,   1.10983614e+01,   2.81229038e+01, 
              2.25708885e+01,   1.70207630e+01,   2.25652194e+01,   2.25935653e+01,   2.24442769e+01, 
              2.22817604e+01,   2.81569189e+01,   2.82608538e+01,   2.80397559e+01,   2.82457360e+01, 
              2.23573495e+01,   2.81399114e+01,   2.26861618e+01,   2.84403778e+01 ]
         </q>
         <p shape='(1, 324)'>
          [   6.85655720e-01,   6.56371543e-01,   1.43281688e+00,  -2.72740585e-01,  -7.04811282e-01, 
              1.03197166e+00,   4.38848265e-02,   5.50268468e-01,  -1.35276125e-01,  -3.94393770e-01, 
             -1.29438460e-02,  -2.84025008e-01,  -1.02597924e+00,   5.63788523e-01,  -6.11041002e-01, 
             -4.64213355e-01,   1.60880812e-01,   3.40434836e-01,   5.52910991e-01,  -5.74122163e-01, 
             -6.43835791e-01,   1.98517425e-01,  -4.47246479e-01,  -1.70087743e-01,  -7.93079318e-01, 
             -1.09217669e-01,   2.45252686e-01,   4.00031588e-02,  -5.94129817e-02,  -3.33584146e-01, 
             -2.71274873e-01,   4.33013687e-01,   2.07398764e-01,  -1.66022779e-01,  -2.26574557e-01, 
              4.52135349e-02,  -6.08955077e-02,  -5.84376190e-01,  -8.77743145e-02,   8.35475058e-01, 
              2.30850609e-01,   1.00795883e+00,  -9.54707428e-01,   6.71946496e-01,   1.54257533e-01, 
             -5.47846699e-01,  -1.77782480e-01,   4.38311576e-01,  -3.53068921e-01,   1.94193982e-01, 
              3.33110872e-01,  -6.45387821e-01,   4.11605156e-01,  -1.41272077e+00,   3.25066170e-01, 
             -9.10226246e-01,  -9.23028634e-01,  -4.03782034e-01,   6.49341073e-01,  -2.88720302e-01, 
             -3.32690929e-02,   6.70302540e-01,   5.09757581e-01,   1.07131967e-01,   7.45018833e-01, 
              8.25488760e-02,   2.60343873e-01,  -3.37483050e-01,   1.11188069e+00,  -4.31481970e-01, 
              2.66825582e-01,  -3.59660180e-02,  -2.28799445e-01,  -3.74975855e-02,   1.04529538e+00, 
             -2.77081881e-01,  -6.48317614e-01,   2.40542082e-01,   5.93342255e-01,   4.00291562e-01, 
              9.65141913e-01,   4.71877666e-02,   2.65785091e-01,   3.35983302e-01,  -4.63526634e-01, 
             -7.28858589e-01,   4.48047519e-01,  -5.94626981e-01,  -2.85756671e-01,  -9.34061216e-02, 
              3.63742726e-01,  -8.69010118e-01,  -6.06883332e-02,   3.31159255e-01,   2.34039480e-01, 
              5.04233498e-01,  -6.00898168e-02,   6.03584737e-01,   5.82392052e-01,  -6.12027078e-01, 
             -1.24938406e-01,  -8.01745774e-01,  -5.58396453e-01,  -3.05930995e-01,   6.12516595e-01, 
              4.65389212e-01,   7.32215031e-02,   6.48887249e-01,  -4.82374348e-01,   7.27721671e-01, 
             -7.25004791e-01,   5.57757936e-01,   6.64856385e-01,  -4.07220468e-01,  -7.78194317e-01, 
              1.03644316e+00,  -1.26370622e-01,  -2.16770162e-01,  -6.79698765e-01,  -4.22029464e-01, 
              1.07503823e-01,   7.12194815e-02,  -2.48413851e-01,  -4.47226413e-01,   1.07523641e+00, 
             -2.87024872e-01,  -4.48063356e-01,  -1.01274349e+00,  -3.90340291e-01,  -1.71750696e-01, 
             -1.46515742e+00,   2.54175732e-01,   4.92014477e-01,  -1.74293160e-01,  -2.36096009e-01, 
              7.68125341e-02,  -3.16219474e-01,  -4.15273879e-01,  -1.05432614e-01,  -1.28319313e-02, 
             -6.86552252e-02,   7.36154693e-02,   1.22001476e-01,  -1.22521031e-01,  -4.87839662e-01, 
             -4.18265382e-01,   1.34347363e-02,  -3.12777753e-01,   2.25160018e-01,   8.49809726e-02, 
              4.65493521e-01,  -4.80159523e-01,   7.62364840e-02,   7.30530538e-01,  -4.77387355e-01, 
             -7.82120652e-01,  -1.13996520e+00,   4.68392339e-01,   2.41812831e-01,   3.91941132e-01, 
              3.87207610e-01,   6.74344306e-01,   2.46652281e-01,  -1.34668327e+00,   9.55342619e-01, 
             -3.49858102e-01,  -6.86475477e-01,  -6.98103032e-02,   5.09855099e-01,   4.82738363e-01, 
             -5.31938260e-01,  -2.63617465e-01,  -2.50459597e-01,  -9.07961123e-02,  -4.76398287e-01, 
              8.05533853e-02,   3.81733743e-01,   3.24620424e-02,  -2.35309689e-01,  -2.82200647e-02, 
              6.71148819e-01,   3.01204209e-01,   5.41110915e-01,  -8.84033577e-01,  -7.39756816e-02, 
             -3.98340522e-01,  -1.33490095e+00,   1.20387178e-01,   5.16313331e-01,   1.32967752e+00, 
              5.62734448e-01,  -3.40530146e-01,   8.40539424e-01,  -1.27819225e+00,  -2.75040336e-01, 
              4.05584837e-01,   3.55952636e-01,   3.68826211e-01,   1.23901132e-01,   2.09182478e-01, 
             -4.04160211e-01,   1.11940398e+00,  -1.04302948e+00,   8.56971960e-01,   5.98605053e-01, 
              6.10941582e-01,  -3.15214141e-01,   6.55071014e-01,  -2.85576569e-01,  -1.04190576e+00, 
              4.07179177e-01,   1.12455875e+00,   1.18485188e+00,   2.87524816e-01,   4.17891986e-01, 
             -8.32531136e-01,  -4.41960694e-01,   6.40452932e-01,  -3.14525325e-01,  -1.13887994e-01, 
             -3.88114162e-01,   3.28175652e-01,   1.51198745e-01,   4.02836488e-01,   6.15799934e-01, 
             -4.66611536e-01,   3.99326657e-01,   1.43684159e+00,   6.92015336e-01,   1.08192380e+00, 
              5.01993072e-01,   2.11977111e-01,  -1.98008178e+00,  -9.07294041e-02,  -6.07488040e-01, 
              3.71516764e-01,  -8.65959422e-01,  -5.28836941e-02,  -1.73869999e-01,  -1.82671213e-02, 
              2.23130233e-01,   7.55168696e-01,  -3.28085672e-01,   4.62194288e-02,  -9.65977283e-01, 
             -1.48839898e-01,  -6.49774299e-01,   9.43772059e-01,   3.91715529e-01,  -1.16367919e+00, 
              6.50482388e-01,   7.75443499e-01,   5.90604354e-01,   2.50285818e-02,   8.41365078e-01, 
             -9.75984281e-02,  -9.10384490e-01,  -1.54117935e-01,   1.19308834e+00,   3.05386710e-01, 
              1.67685222e-01,   5.01813088e-01,   8.61312463e-01,  -5.63986193e-01,   3.95312097e-01, 
              2.56532597e-01,  -9.42350078e-01,   3.11880058e-01,   9.64429698e-02,  -6.09698546e-01, 
              1.00105899e+00,   1.13865456e-01,  -5.91778841e-01,   7.10782667e-03,  -8.01936381e-01, 
              8.03172411e-01,  -1.06405072e+00,   1.04429920e-01,  -4.23300490e-01,   4.50296654e-01, 
             -3.48061708e-01,  -4.52701060e-01,   2.67680681e-01,   1.00084550e+00,   2.98385496e-01, 
             -1.28149258e-01,  -2.98669198e-01,  -7.61195421e-01,  -8.07266002e-01,   6.55947782e-01, 
             -1.04543582e+00,  -4.55689887e-01,  -6.70415860e-01,  -7.20258858e-01,   4.54022720e-01, 
             -9.51293545e-02,  -3.84282140e-01,  -3.26093300e-01,  -1.03313624e+00,  -1.45100979e+00, 
              1.07427070e-01,   5.97401268e-02,   8.76959556e-01,   6.84584635e-01,  -9.49942239e-01, 
             -3.76507509e-01,   2.55064951e-02,   6.29696013e-01,   2.09403850e-01,   8.21276558e-02, 
             -2.20777487e-01,   7.06697622e-02,   9.87338872e-01,   1.93735904e-01,   7.16175396e-01, 
              3.24845768e-01,   2.29841434e-01,  -8.63357544e-01,  -5.13858503e-01,  -3.33203079e-01, 
             -5.68956572e-01,   7.18564935e-01,  -5.33337697e-02,  -3.91073818e-01 ]
         </p>
         <m shape='(108)'>
          [   3.67494322e+03,   3.67494322e+03,   3.67494322e+03,   3.67494322e+03,   3.67494322e+03, 
              3.67494322e+03,   3.67494322e+03,   3.67494322e+03,   3.67494322e+03,   3.67494322e+03, 
              3.67494322e+03,   3.67494322e+03,   3.67494322e+03,   3.67494322e+03,   3.67494322e+03, 
              3.67494322e+03,   3.67494322e+03,   3.67494322e+03,   3.67494322e+03,   3.67494322e+03, 
              3.67494322e+03,   3.67494322e+03,   3.67494322e+03,   3.67494322e+03,   3.67494322e+03, 
              3.67494322e+03,   3.67494322e+03,   3.67494322e+03,   3.67494322e+03,   3.67494322e+03, 
              3.67494322e+03,   3.67494322e+03,   3.67494322e+03,   3.67494322e+03,   3.67494322e+03, 
              3.67494322e+03,   3.67494322e+03,   3.67494322e+03,   3.67494322e+03,   3.67494322e+03, 
              3.67494322e+03,   3.67494322e+03,   3.67494322e+03,   3.67494322e+03,   3.67494322e+03, 
              3.67494322e+03,   3.67494322e+03,   3.67494322e+03,   3.67494322e+03,   3.67494322e+03, 
              3.67494322e+03,   3.67494322e+03,   3.67494322e+03,   3.67494322e+03,   3.67494322e+03, 
              3.67494322e+03,   3.67494322e+03,   3.67494322e+03,   3.67494322e+03,   3.67494322e+03, 
              3.67494322e+03,   3.67494322e+03,   3.67494322e+03,   3.67494322e+03,   3.67494322e+03, 
              3.67494322e+03,   3.67494322e+03,   3.67494322e+03,   3.67494322e+03,   3.67494322e+03, 
              3.67494322e+03,   3.67494322e+03,   3.67494322e+03,   3.67494322e+03,   3.67494322e+03, 
              3.67494322e+03,   3.67494322e+03,   3.67494322e+03,   3.67494322e+03,   3.67494322e+03, 
              3.67494322e+03,   3.67494322e+03,   3.67494322e+03,   3.67494322e+03,   3.67494322e+03, 
              3.67494322e+03,   3.67494322e+03,   3.67494322e+03,   3.67494322e+03,   3.67494322e+03, 
              3.67494322e+03,   3.67494322e+03,   3.67494322e+03,   3.67494322e+03,   3.67494322e+03, 
              3.67494322e+03,   3.67494322e+03,   3.67494322e+03,   3.67494322e+03,   3.67494322e+03, 
              3.67494322e+03,   3.67494322e+03,   3.67494322e+03,   3.67494322e+03,   3.67494322e+03, 
              3.67494322e+03,   3.67494322e+03,   3.67494322e+03 ]
         </m>
         <names shape='(108)'>
          [ H2, H2, H2, H2, H2, 
            H2, H2, H2, H2, H2, 
            H2, H2, H2, H2, H2, 
            H2, H2, H2, H2, H2, 
            H2, H2, H2, H2, H2, 
            H2, H2, H2, H2, H2, 
            H2, H2, H2, H2, H2, 
            H2, H2, H2, H2, H2, 
            H2, H2, H2, H2, H2, 
            H2, H2, H2, H2, H2, 
            H2, H2, H2, H2, H2, 
            H2, H2, H2, H2, H2, 
            H2, H2, H2, H2, H2, 
            H2, H2, H2, H2, H2, 
            H2, H2, H2, H2, H2, 
            H2, H2, H2, H2, H2, 
            H2, H2, H2, H2, H2, 
            H2, H2, H2, H2, H2, 
            H2, H2, H2, H2, H2, 
            H2, H2, H2, H2, H2, 
            H2, H2, H2, H2, H2, 
            H2, H2, H2 ]
         </names>
      </beads>
      <cell shape='(3, 3)'>
       [   3.37259417e+01,   2.06511833e-15,   2.06511833e-15,   0.00000000e+00,   3.37259417e+01, 
           2.06511833e-15,   0.00000000e+00,   0.00000000e+00,   3.37259417e+01 ]
      </cell>
   </system>
</simulation>
