3
# CELL(abcABC):   35.23300    35.23300    35.23300    90.00000    90.00000    90.00000  Traj: positions{angstrom} Step:          11  Bead:       0 
       O  0.00000e+00 -2.00000e-02  0.00000e+00
       H  7.50000e-01  5.00000e-01  0.00000e+00
       H -7.50000e-01  5.00000e-01  0.00000e+00
