#Bead    Energy (eV)
0     0.0414344481013313
1     0.04143778367518003
2     0.04144469142280824
3     0.04145565987586224
4     0.041471461032988474
5     0.0414931998740958
6     0.04152238459525
7     0.0415610213607754
8     0.04161173853160419
9     0.041677946604529406
10     0.04176404146921561
11     0.041875660006592
12     0.04201999840611084
13     0.04220620467867648
14     0.04244585737152615
15     0.042753541957449334
16     0.04314753403271842
17     0.04365059324125735
18     0.04429086224177583
19     0.04510284901837189
20     0.04612844578315571
21     0.04741790044411718
22     0.04903060356778962
23     0.05103548159245915
24     0.05351069368497902
25     0.05654221631407445
26     0.06022077410686769
27     0.06463645697678157
28     0.06987028872854513
29     0.07598204323811703
30     0.08299383357361578
31     0.09086954477839329
32     0.09948138729871513
33     0.10855809484578015
34     0.11767912729212285
35     0.12627221561018004
36     0.133703510023137
37     0.1396104583975605
38     0.14375099351938908
39     0.14590993209975922
40     0.14592453594698993
41     0.1439043685117157
42     0.14028206112170988
43     0.13550454160630426
44     0.12973038300824416
45     0.12300219736281041
46     0.11545684373325323
47     0.10748390682837579
48     0.09947339789693144
49     0.09172354566745906
50     0.08444268021089006
51     0.07774005507031738
52     0.07166879798086584
53     0.06624957514229825
54     0.061478716665723465
55     0.057335400595689694
56     0.05378672100349848
57     0.0507887477874041
58     0.048298740308704145
59     0.046279890500890195
60     0.04470151067861862
61     0.04353909298849611
62     0.0427743040960467
63     0.04239495225578481
