#Bead    Energy (eV)
0     0.04143664422359852
1     0.041440060138863546
2     0.041447134249361355
3     0.04145836681308158
4     0.04147454835323606
5     0.04149681034919958
6     0.041526697132302434
7     0.04156626286344886
8     0.041618198653083985
9     0.04168599617971524
10     0.04177415555216281
11     0.04188844658703223
12     0.04203623402269071
13     0.042226878262796926
14     0.04247222370610243
15     0.04278718605997436
16     0.04319044748227577
17     0.04370526283493567
18     0.0443603702056194
19     0.04519098206673684
20     0.046239807303146065
21     0.04755801559816582
22     0.049206000739820586
23     0.05125372496893626
24     0.05378033065898682
25     0.056872590062549085
26     0.06062163720121381
27     0.06511730877998273
28     0.07043935237753572
29     0.07664480506276257
30     0.0837511003850631
31     0.09171500347875826
32     0.1003958679581365
33     0.10950652120736357
34     0.11860985372907501
35     0.12711661644633437
36     0.13440694442202114
37     0.14014245023155936
38     0.144084121187044
39     0.1460181275569136
40     0.1457938767500849
41     0.14356816545299292
42     0.13978819313128785
43     0.1348852190278622
44     0.12898369836731932
45     0.12213003076816675
46     0.11448737980731134
47     0.10646450874323858
48     0.09844237551962157
49     0.09071024508420758
50     0.08346555146590494
51     0.07680809067379347
52     0.07078696456998052
53     0.06541964315707728
54     0.06069999153105468
55     0.056605356374527266
56     0.05310056742000245
57     0.05014017370164885
58     0.04768170413972135
59     0.045688632616641335
60     0.04413053167984842
61     0.04298311647066296
62     0.04222822874751713
63     0.041853796953166204
