#Bead    Energy (eV)
0     0.04275027929649642
1     0.04278020085843042
2     0.042841306080199114
3     0.04293616991274339
4     0.04306878310572499
5     0.043244710139460636
6     0.04347130612588618
7     0.04375799752770975
8     0.0441166318622986
9     0.044561900975706614
10     0.04511184046984128
11     0.04578840368360244
12     0.04661810119826244
13     0.04763268470416382
14     0.048869835332139476
15     0.050373788872664964
16     0.05219579100648223
17     0.05439422210924104
18     0.05703416152266364
19     0.06018607576352497
20     0.0639232188721544
21     0.06831723895029577
22     0.07343138940685787
23     0.07930835809046836
24     0.08595531643455993
25     0.09332781491095406
26     0.10129875441183091
27     0.10963150524586682
28     0.1179797107559022
29     0.12588668450888285
30     0.1328434305277984
31     0.13854559498311456
32     0.14278838898884882
33     0.1453885360112828
34     0.1461854077451984
35     0.14512910883487187
36     0.1424782687516996
37     0.1386015608427453
38     0.13378570900164893
39     0.12806948908144877
40     0.12148133678532885
41     0.11416218889878457
42     0.10645677618433959
43     0.09868394933803322
44     0.09109590790904701
45     0.08387528274125837
46     0.07712198267203546
47     0.070891806102701
48     0.06521352205057637
49     0.06009428336266686
50     0.05552463757222115
51     0.05147705342355682
52     0.0479089553970462
53     0.04477923434803962
54     0.04205021062749422
55     0.039687820590206646
56     0.037661691498033195
57     0.035945151713104466
58     0.03451522317228356
59     0.03335251502993871
60     0.0324411007228787
61     0.03176840003345971
62     0.03132507558492764
63     0.031104950321266492
