#Bead    Energy (eV)
0     0.04144054208436112
1     0.04144409586587292
2     0.04145145516537695
3     0.041463139752019186
4     0.041479970942061115
5     0.041503124208672235
6     0.04153420378298187
7     0.041575343251204606
8     0.041629337369100405
9     0.041699811641437316
10     0.04179143762776264
11     0.04191020337411097
12     0.04206374970876496
13     0.042261784161005865
14     0.04251658461059021
15     0.04284360390273965
16     0.04326218374958333
17     0.043796380104186704
18     0.04447589119702167
19     0.04533706137193542
20     0.04642390594938778
21     0.047789061226911025
22     0.04949450577064875
23     0.051611821106958666
24     0.054221660231121814
25     0.05741197342604569
26     0.06127441277227098
27     0.06589822239909815
28     0.07136086373388549
29     0.0777146936853932
30     0.08496931100329116
31     0.093069534900205
32     0.10185300150988472
33     0.11100739353852199
34     0.12006912117295708
35     0.12842328987454232
36     0.13548342550570078
37     0.1409414415783029
38     0.14456251414739757
39     0.14613594206416028
40     0.14553726481164225
41     0.14299755447632337
42     0.13898061076570395
43     0.13388074575243838
44     0.12777934152209108
45     0.1207312816332953
46     0.11294983310286946
47     0.1048612848929129
48     0.09683196333433751
49     0.0891368402052708
50     0.08195478659549262
51     0.07537288884538088
52     0.06943408362004713
53     0.06415095473351323
54     0.059513639343837854
55     0.055496680702518085
56     0.052060826230550805
57     0.04915936171404459
58     0.04675029165805342
59     0.044797559285974085
60     0.04327116666277864
61     0.04214719496511254
62     0.041407772321972534
63     0.04104102329826275
