#Bead    Energy (eV)
0     0.04139064492444978
1     0.04139364161946814
2     0.04139998021778682
3     0.041410381392008914
4     0.04142600406782261
5     0.04144854541319732
6     0.041480385309005906
7     0.0415247855094199
8     0.04158615700073799
9     0.04167041273763614
10     0.04178542686323676
11     0.04194162540489177
12     0.042152736679326286
13     0.04243673116281114
14     0.04281697859365053
15     0.043323641749235024
16     0.0439953074233546
17     0.04488081951294205
18     0.04604121850887172
19     0.047551595586775304
20     0.04950252605066836
21     0.052000545274302
22     0.055166864099561605
23     0.05913286995808192
24     0.06403041987551535
25     0.06997518063752493
26     0.07704141806248538
27     0.08523000464733294
28     0.09443335334864929
29     0.10437372905599929
30     0.11455911316135221
31     0.12429544251244935
32     0.13274800822157265
33     0.13938270350379953
34     0.14390050573425775
35     0.14604213071632915
36     0.14562799323555595
37     0.14289197665023395
38     0.1384066592716264
39     0.13261661604699776
40     0.12557217304176357
41     0.11733397399292311
42     0.10829039744168133
43     0.09898268175666296
44     0.08984253266411547
45     0.08117207549876683
46     0.07312961503322109
47     0.06580301945931642
48     0.05923313727922417
49     0.053422687918401525
50     0.048326116660702086
51     0.04387450309753007
52     0.04000268514533666
53     0.03665078010935086
54     0.03376462174129549
55     0.03129590603530467
56     0.029202139995884453
57     0.027446539034470693
58     0.025997903409307174
59     0.02482995333621405
60     0.02392107195187513
61     0.02325417023185736
62     0.0228165590528654
63     0.022599842604787725
