#Bead    Energy (eV)
0     0.04143299769934156
1     0.04143628099242074
2     0.04144308053013499
3     0.04145387731392976
4     0.04146943145123786
5     0.04149083092002364
6     0.04151956074573737
7     0.041557596336294585
8     0.04160752586979329
9     0.04167270789257375
10     0.04175747164676185
11     0.04186736905709821
12     0.04200948866315067
13     0.04219284289955177
14     0.04242884069763604
15     0.04273185692669434
16     0.04311990799000635
17     0.04361543789051498
18     0.04424620981105288
19     0.04504628272284443
20     0.04605702816760372
21     0.04732810600701867
22     0.04891826607797455
23     0.05089577195028999
24     0.05333815118656699
25     0.05633086461175904
26     0.059964362356287625
27     0.06432887504836521
28     0.06950620996739645
29     0.07555784417102926
30     0.08250881995612358
31     0.09032747315371806
32     0.09889390621499143
33     0.10794707435974155
34     0.11707693920515837
35     0.1257220594295827
36     0.13324269076770417
37     0.1392585526558932
38     0.14352535744759665
39     0.14582713872911565
40     0.1459947775336761
41     0.14410829257333344
42     0.14058913198263934
43     0.13589155730004834
44     0.1301978223671541
45     0.12354897073798175
46     0.11606774345062948
47     0.10812852165300742
48     0.10012691473060215
49     0.09236691378634396
50     0.0850634595100194
51     0.07833230638313023
52     0.07222925237588612
53     0.06677703147284206
54     0.061973569617895685
55     0.05779923098847468
56     0.05422236589579418
57     0.05120022998815947
58     0.048689947560732326
59     0.046654527985621135
60     0.0450631150370987
61     0.043891056411423136
62     0.04311990533693745
63     0.042737392193991
