#Bead    Energy (eV)
0     0.04157195801479472
1     0.04157932549027338
2     0.04159452585964221
3     0.04161851756828408
4     0.04165280867767965
5     0.041699545206190645
6     0.04176163543936573
7     0.04184291592837965
8     0.041948366431396725
9     0.042084382565968956
10     0.04225911631124153
11     0.04248289551544847
12     0.0427687338816991
13     0.04313294198748004
14     0.04359584694068441
15     0.044182622131034986
16     0.04492421758331545
17     0.04585836347015007
18     0.047030591554960456
19     0.048495178201915276
20     0.050315854091923094
21     0.05256604586812437
22     0.05532831055248588
23     0.058692494633858
24     0.06275200060907327
25     0.06759738932380878
26     0.07330642377286588
27     0.0799294711471809
28     0.0874690364596107
29     0.09585078356451426
30     0.10486712758550402
31     0.1141477563402789
32     0.12315620989328348
33     0.1312126432464777
34     0.13780807080564067
35     0.14265272501748136
36     0.1454979447188084
37     0.14613323032868536
38     0.1445490200844069
39     0.14114859626998372
40     0.13642648534344332
41     0.1306191090839431
42     0.1237590010399058
43     0.1159574399218824
44     0.10760911880118629
45     0.09914524419813159
46     0.09089952384544306
47     0.08310547056543953
48     0.07588433787121183
49     0.06929878616783347
50     0.0633754049498601
51     0.058113080621306934
52     0.053489160222783196
53     0.04945579711162347
54     0.045958362691300006
55     0.0429472149153323
56     0.04037808000377092
57     0.03821211347456315
58     0.036415835494770565
59     0.034960994016314764
60     0.03382439609718616
61     0.0329877351573271
62     0.03243743376656774
63     0.032164515601952805
