#Bead    Energy (eV)
0     0.041445327042583135
1     0.0414490665634075
2     0.04145681112300285
3     0.0414691089658215
4     0.04148682645109605
5     0.041511203596971386
6     0.04154393282698502
7     0.04158726512726232
8     0.04164414909248003
9     0.04171840971547714
10     0.04181497523065795
11     0.04194016178215449
12     0.042102027012853004
13     0.04231080461612225
14     0.042579432065452505
15     0.04292418253274048
16     0.043365408526629554
17     0.04392839774329313
18     0.04464432924807358
19     0.045551298039680686
20     0.04669534531080781
21     0.048131386795849884
22     0.04992386877741169
23     0.0521468974767896
24     0.0548834816345962
25     0.05822340371487408
26     0.0622591046855921
27     0.06707885759287759
28     0.07275646482092221
29     0.07933682096362389
30     0.08681704903421228
31     0.09512213116502652
32     0.10405415568233825
33     0.11326187082959766
34     0.12223954935490432
35     0.1303388660460896
36     0.13704039604370064
37     0.14206557396698827
38     0.14518279871707157
39     0.14618868358926546
40     0.14502005744481944
41     0.14201245338891041
42     0.13764394234232671
43     0.13222453245224994
44     0.12579864370985502
45     0.11844274864070704
46     0.11045966382432254
47     0.10228037238279487
48     0.09424883187500871
49     0.08661714918640119
50     0.079533644201776
51     0.07306989699766377
52     0.06725949636324598
53     0.06210760370183106
54     0.05759867149555112
55     0.053701950951108135
56     0.05037142279618738
57     0.04756009567434832
58     0.04522666387322327
59     0.043335754297950356
60     0.04185799620450135
61     0.04077000602659984
62     0.04005433101347692
63     0.03969938290923216
