#Bead    Energy (eV)
0     0.041459080819323514
1     0.041463266696433784
2     0.04147193209502261
3     0.041485683192457545
4     0.04150547752883694
5     0.04153268491730249
6     0.041569173727612464
7     0.041617427080000075
8     0.04168069483465271
9     0.041763188706713146
10     0.041870329336341675
11     0.04200905560470784
12     0.04218820773650762
13     0.0424189964757561
14     0.04271557040093348
15     0.04309569155328883
16     0.043581524955702444
17     0.04420053883626715
18     0.044986497443778986
19     0.045980504637466404
20     0.04723202071098073
21     0.04879972345750561
22     0.05075201357885669
23     0.05316687145502611
24     0.05613065713604213
25     0.059735314239021634
26     0.06407330792707908
27     0.06922953116338072
28     0.0752694107318753
29     0.08222262584793823
30     0.0900622783790213
31     0.09867211816276647
32     0.10779090004496208
33     0.11700211790076079
34     0.12573067925013412
35     0.1333183777373251
36     0.13937196072972097
37     0.14363604060969207
38     0.14588288856285453
39     0.1459364183364081
40     0.14389765477961405
41     0.14020886193159668
42     0.13532787355879522
43     0.12940848983223147
44     0.12249050504400215
45     0.11472482654541673
46     0.1065275360850208
47     0.09829908580578099
48     0.09034506161117566
49     0.08287391131061793
50     0.07599089898368076
51     0.06974915339593592
52     0.06416838206795744
53     0.0592431215229901
54     0.054949760747959625
55     0.05124670150327936
56     0.04808356464695303
57     0.045414725213881804
58     0.043200303861606566
59     0.04140627936351526
60     0.04000448663295717
61     0.0389725520598811
62     0.03829380399516897
63     0.037957185175737894
