#Bead    Energy (eV)
0     0.041431523605681135
1     0.041434753480376105
2     0.04144144243563891
3     0.04145206374107273
4     0.04146736529244385
5     0.041488417603703844
6     0.041516681893528695
7     0.04155410195916442
8     0.04160322466553608
9     0.041667355127127215
10     0.041750754010369553
11     0.04185888578819251
12     0.041998728136566695
13     0.04217915379629884
14     0.042411396835426524
15     0.042709614871993894
16     0.04309155675102233
17     0.04357934038986184
18     0.044200336574154515
19     0.04498813945207321
20     0.04598358080747046
21     0.0472357097911629
22     0.048802609159670614
23     0.05075184981202897
24     0.0531602952489517
25     0.056112857193514505
26     0.05969967971640681
27     0.06401110908639907
28     0.06912972425438511
29     0.07511871632294978
30     0.0820061025290169
31     0.08976475969599965
32     0.0982826882348466
33     0.1073095245222959
34     0.11644610021451877
35     0.1251422399768002
36     0.13275452681938668
37     0.1388827711810835
38     0.14328005287921095
39     0.1457296491882826
40     0.14605678720801793
41     0.14431166473213178
42     0.14090226991169702
43     0.13628848280661082
44     0.13067830918347245
45     0.12411211862513782
46     0.11669991012051818
47     0.10879810764542852
48     0.10080771631551246
49     0.09303872933718235
50     0.08571271699430998
51     0.07895252276612656
52     0.07281685346023217
53     0.06733062476527923
54     0.062493451860995454
55     0.05828695927961056
56     0.05468069792464334
57     0.05163329767362211
58     0.049101810282993014
59     0.04704905704832793
60     0.04544400767767934
61     0.04426186044095481
62     0.04348405109802231
63     0.04309822933372733
