#Bead    Energy (eV)
0     0.0414320986123798
1     0.041435349290263455
2     0.04144208130851779
3     0.041452770943414256
4     0.04146817083925893
5     0.04148935830058169
6     0.04151780380235514
7     0.04155546343155764
8     0.041604900113974864
9     0.041669439734878105
10     0.04175336961685284
11     0.04186218822460827
12     0.042002916324086675
13     0.04218448095011686
14     0.042418184132971895
15     0.0427182679278418
16     0.04310258517220661
17     0.043593380531021984
18     0.04421817732675026
19     0.04501075042427065
20     0.046012141501810606
21     0.04727163726920011
22     0.04884758008936617
23     0.05080781062453124
24     0.053229451328237
25     0.05619762863182935
26     0.059802607443922205
27     0.06413469173519454
28     0.06927616410956103
29     0.07528955408518653
30     0.0822017282356714
31     0.08998380476862505
32     0.09852074696509402
33     0.1075580277822716
34     0.11669225616613076
35     0.12536887548274395
36     0.13294561957672707
37     0.13903020895880616
38     0.14337679937002537
39     0.14576896116002383
40     0.14603401559909782
41     0.14423362904947454
42     0.14078125541196979
43     0.13613481607804123
44     0.13049219233787873
45     0.12389388619614902
46     0.11645462428483375
47     0.108538041836738
48     0.10054310626611064
49     0.09277747238442538
50     0.0854601588639929
51     0.07871121766078981
52     0.07258820582110381
53     0.06711518705827169
54     0.062291116600872824
55     0.05809712636072085
56     0.05450231294315485
57     0.0514647597546257
58     0.04894153722492347
59     0.04689553994141874
60     0.04529580546150961
61     0.044117590309882895
62     0.04334237604740632
63     0.042957843824442454
