#Bead    Energy (eV)
0     0.041431159968245763
1     0.0414343766705071
2     0.041441038357545174
3     0.04145161639296752
4     0.04146685566220852
5     0.04148782237410154
6     0.041515971878580755
7     0.04155324018025903
8     0.04160216395934773
9     0.041666035157624556
10     0.041749097534570685
11     0.041856794000993965
12     0.041996074896036975
13     0.0421757785109457
14     0.04240709578511528
15     0.04270413074377016
16     0.04308456621417947
17     0.043570439631689925
18     0.04418902489774111
19     0.044973801339273416
20     0.045965467324147594
21     0.04721292091934338
22     0.04877407965050171
23     0.05071634252842101
24     0.0531164077453049
25     0.056059049433738156
26     0.05963433320190204
27     0.0639326298686573
28     0.06903670360728371
29     0.07501016202250434
30     0.08188174891400904
31     0.08962545358340034
32     0.09813118445377166
33     0.10715123022230368
34     0.11628910559140161
35     0.1249974229295405
36     0.13263221526469673
37     0.13878816780384723
38     0.14321763872385676
39     0.1457037199935348
40     0.14607037256371103
41     0.144360598186313
42     0.14097874693428394
43     0.13638579915652513
44     0.13079625951414806
45     0.12425050723715576
46     0.11685567710490194
47     0.10896346274333556
48     0.1009761158622855
49     0.09320511837625593
50     0.0858736465464215
51     0.07910634090531145
52     0.07296265326499976
53     0.06746804380934066
54     0.06262254989024513
55     0.05840811151609661
56     0.05479456174331278
57     0.051740885430423565
58     0.049204130031355486
59     0.04714707031454202
60     0.04553863288563279
61     0.04435397899054626
62     0.043574515271603956
63     0.04318787140600699
