#Bead    Energy (eV)
0     0.0414586067293743
1     0.04146298037959526
2     0.04147204730433017
3     0.0414864677858511
4     0.04150728601655086
5     0.04153599797703809
6     0.041574647642724526
7     0.04162595661486482
8     0.04169349377491985
9     0.04178189315946592
10     0.04189712989185801
11     0.042046865568348565
12     0.04224087576573757
13     0.04249157295748899
14     0.042814637532817806
15     0.04322976695736643
16     0.04376154715373442
17     0.04444043916542588
18     0.04530385572151752
19     0.04639727334786675
20     0.04777528237112576
21     0.049502415231536145
22     0.051653508760727065
23     0.05431324565904421
24     0.05757438496723718
25     0.061534038910397236
26     0.06628720590430467
27     0.07191667017045388
28     0.0784784047772787
29     0.08598179449643652
30     0.09436169300496523
31     0.10342550420888139
32     0.1128136247204845
33     0.12199717818538072
34     0.13029031208530534
35     0.1371328491390891
36     0.14222269699322038
37     0.145308263954973
38     0.14617177455363273
39     0.1447697075085206
40     0.14148719572478802
41     0.1368315004796831
42     0.1310747919132957
43     0.1242525885432
44     0.11646812508050722
45     0.1081076271237402
46     0.09961614403421955
47     0.09133891407928739
48     0.08351908058034527
49     0.07628433304493165
50     0.06969966710560682
51     0.06379259587961304
52     0.05856198666449303
53     0.05398514846508404
54     0.050015439788023884
55     0.04659799128392859
56     0.04368306530574811
57     0.04122664271453125
58     0.039190525999689856
59     0.03754231185829019
60     0.03625529087634873
61     0.035308315471243246
62     0.0346856654401191
63     0.03437693165912537
