4
# CELL(abcABC): 1322.94304  1322.94304  1322.94304    90.00000    90.00000    90.00000  Step:     1000000  Bead:       1 positions{angstrom}  cell{angstrom}
       E  5.09436e+01 -5.27791e+01 -8.50723e+00
       E -5.08186e+01  5.12858e+00 -3.76529e+01
       E -3.82734e+01 -2.70475e+01  2.34610e+01
       E -6.69192e+00 -2.24909e+01  1.45001e+01
