4
# CELL(abcABC): 1322.94304  1322.94304  1322.94304    90.00000    90.00000    90.00000  Step:     1000000  Bead:       2 positions{angstrom}  cell{angstrom}
       E  4.02109e+01 -5.94580e+01 -1.45866e+01
       E -3.55113e+01  6.63898e+00 -2.74388e+01
       E -1.71004e+01 -2.51765e+01  2.34734e+01
       E -7.45502e+00 -1.58150e+01  3.91103e+01
