4
# CELL(abcABC): 1322.94304  1322.94304  1322.94304    90.00000    90.00000    90.00000  Step:     1000000  Bead:       3 positions{angstrom}  cell{angstrom}
       E  4.67305e+01 -6.01583e+01  5.10107e+00
       E -4.52939e+01  1.04975e+01 -4.22352e+01
       E  1.86622e+00 -1.70134e+01  8.27098e+00
       E  2.72764e+00 -4.67712e+00  3.20161e+01
