#Bead    Energy (eV)
0     -0.1364378173547486
1     -0.11682766525311214
2     -0.07998497706796273
3     -0.03589588288821818
4     -0.004495430000576011
5     -0.004495430000576014
6     -0.035895882888218204
7     -0.07998497706796276
8     -0.11682766525311214
9     -0.1364378173547486
