#Bead    Energy (eV)
0     -1.37775780453328e-10
1     -1.1291396788390895e-10
2     -7.180330689960257e-11
3     -2.984375243802154e-11
4     -3.560944706496713e-12
5     -3.560944706523794e-12
6     -2.9843752438100254e-11
7     -7.180330689972532e-11
8     -1.1291396788406124e-10
9     -1.3777578045349552e-10
