#Bead    Energy (eV)
0     -1.3777578045348474e-10
1     -1.1291396788404651e-10
2     -7.180330689970496e-11
3     -2.9843752438082974e-11
4     -3.5609447065153647e-12
5     -3.5609447065071947e-12
6     -2.9843752438059936e-11
7     -7.180330689966972e-11
8     -1.1291396788400027e-10
9     -1.377757804534353e-10
