  LAMMPS data file, written by xyz2lammps (DMW)

            96 	atoms
            64 	bonds
            32 	angles
  0	dihedrals
  0	impropers
  2	atom types
  1	bond types
  1	angle types
  0	dihedral types
  0	improper types

   0.0000000000000000        58.36      	xlo xhi
   0.0000000000000000        58.36      	ylo yhi
   0.0000000000000000        58.36      	zlo zhi

  Masses

 	1	15.999400
 	2	1.0079401

Bond Coeffs

  1    1.78    0.2708585 -0.327738785 0.231328959

Angle Coeffs

  1    0.0700  107.400000

Atoms

           1           1           1 -1.1128        3.3790190409309000       -30.925365809984996       -16.021096934742001
           2           1           2  0.5564        1.9955506443840001       -30.326133698873097       -15.090444679679280
           3           1           2  0.5564        4.6521841314998698       -30.970719233720999       -14.733758899255530
           4           2           1 -1.1128       -8.0183152411857890        2.7745334915695801       -2.8268977987247701
           5           2           2  0.5564       -8.6643369677853297        3.9112036739530796       -4.1269914846369904
           6           2           2  0.5564       -8.1377648209504798        3.6537096106919398       -1.2298828065169141
           7           3           1 -1.1128       -20.553982664556298       -30.226734111851702        7.4359016913759897
           8           3           2  0.5564       -21.732415791296699       -30.547609584783899        6.1897974769694999
           9           3           2  0.5564       -21.105782653344299       -28.936618179161400        8.4969450396797104
          10           4           1 -1.1128       -18.525758657822490        21.189875459854800        6.8373687788800206
          11           4           2  0.5564       -18.259363985153161        20.567777664276001        8.5209067652202304
          12           4           2  0.5564       -18.019765627007850        20.050748633685600        5.6763778230180906
          13           5           1 -1.1128       -9.9852554340963309        4.3150381178023798        2.4644672512944603
          14           5           2  0.5564       -10.597205401114200        5.1420955941481203        3.9544595018412902
          15           5           2  0.5564       -9.8184871155670788        2.6713544525701800        3.0830123620139398
          16           6           1 -1.1128        5.7853583208037200        25.693281464240698        16.951144477488238
          17           6           2  0.5564        4.1548460457148506        26.515312269455698        17.029643695071300
          18           6           2  0.5564        5.5565880925753799        24.156556289985897        16.007812161039329
          19           7           1 -1.1128       -2.6779495962717901        19.255551937514401       -7.8736567167278393
          20           7           2  0.5564       -1.5402003803485709        18.031670900738551       -7.0268327065371601
          21           7           2  0.5564       -3.5606784002534702        18.171586212964112       -9.0508048297957195
          22           8           1 -1.1128       -9.7345265898758111        6.9642449817814800       -6.4506930470108399
          23           8           2  0.5564       -11.547850957140540        7.2022937646158098       -6.4548882387064195
          24           8           2  0.5564       -9.3591325221609587        7.4494699239770101       -8.1046379243633098
          25           9           1 -1.1128       -17.390297900071950        18.312824333381972        11.992446790572568
          26           9           2  0.5564       -16.616530696616010        17.171524322325418        13.118326637558880
          27           9           2  0.5564       -16.641550668710373        19.960986649208103        12.412079343689911
          28          10           1 -1.1128       -4.3946333764590602        7.2315656201854193       -15.709443324636119
          29          10           2  0.5564       -4.1560365730879196        5.3821474865307906       -15.468578850078179
          30          10           2  0.5564       -4.5722109276453899        7.4352591845397296       -17.443040152424942
          31          11           1 -1.1128        16.961708045766748       -14.650648750259309        33.620681988095697
          32          11           2  0.5564        16.725511194401637       -16.336265435187421        34.005052254258302
          33          11           2  0.5564        15.247575395664628       -13.958801168426520        33.658098562677900
          34          12           1 -1.1128       -4.5788627631266694       -23.720218559125797        27.287265335962200
          35          12           2  0.5564       -3.4078562595230402       -24.296584985770799        25.998850156661998
          36          12           2  0.5564       -5.3049899743999198       -25.163024351727298        28.190365386105299
          37          13           1 -1.1128       0.16659559757385542       -2.4094573277546703      -0.54102477119872194
          38          13           2  0.5564        1.9675826997467998       -2.4073030401272097      -0.39040416124547700
          39          13           2  0.5564       -4.0849450813817398E-002 -0.82184939152005598       -1.2567603792584610
          40          14           1 -1.1128        11.883900929764410        9.4837788483954011        8.5808488735913109
          41          14           2  0.5564        12.321391393477800        9.0146165771063700        6.9271685578772999
          42          14           2  0.5564        10.182996361585289        9.7447311102164100        8.7073849258147504
          43          15           1 -1.1128        44.592242107630803        15.630301600216800        7.8172294986963005
          44          15           2  0.5564        44.262673895149199        14.012337105694890        8.6019382156285502
          45          15           2  0.5564        44.454481083032704        16.688019030779881        9.2055922855547099
          46          16           1 -1.1128        6.1542517311164096        2.3917128007179600        11.418404726894041
          47          16           2  0.5564        7.5468852987099604        3.2098129758758400        10.816243540499189
          48          16           2  0.5564        4.7807232932716506        2.8219089221138098        10.345701769238190
          49          17           1 -1.1128       -5.8272346487199602        36.390453370173006       0.87459920277700198
          50          17           2  0.5564       -4.4918219840733302        37.532792730523497       0.54733267655000406
          51          17           2  0.5564       -6.4678895535107399        37.118753766333597        2.3995173690525302
          52          18           1 -1.1128        16.173257671376280        10.988662139735549        33.397127403596997
          53          18           2  0.5564        16.721013646547821        10.209131272013162        34.917978879544194
          54          18           2  0.5564        14.907802662842430        9.9767516671458303        32.653898172123299
          55          19           1 -1.1128        1.4544446149677510        5.7257941576304399       -9.2341649425083911
          56          19           2  0.5564        1.2317404071641009        5.9985383096228100       -10.984051208322390
          57          19           2  0.5564      -0.19724392955385300        5.7023615553668403       -8.6609354610051295
          58          20           1 -1.1128        28.859517358810201       -7.7000286928585195        4.2697413858460500
          59          20           2  0.5564        28.025959225062302       -6.1896651961502700        4.6495385151152702
          60          20           2  0.5564        28.616876541822599       -7.7327965415077795        2.4881833124564099
          61          21           1 -1.1128       -10.183676662941329       -10.353430748533199       -1.0165875444124950
          62          21           2  0.5564       -10.146278985619020       -10.417322384221290       -2.8929437220403202
          63          21           2  0.5564       -11.160891766373009       -11.851038594815700      -0.61552721831504698
          64          22           1 -1.1128        20.595556636314299        8.1757105188095984       -2.6002818581238900
          65          22           2  0.5564        19.693590421764601        8.6113301537938796       -1.0990003845187741
          66          22           2  0.5564        19.658252545770299        6.9406045096590905       -3.6329415220728296
          67          23           1 -1.1128        30.488650133927102       -4.3038698372073902       -4.1410699432550402
          68          23           2  0.5564        30.906090604897202       -2.5438168455725703       -4.3409273638516801
          69          23           2  0.5564        29.893764392589901       -4.5333770585714408       -2.4728954292054000
          70          24           1 -1.1128        22.435960777001402        2.9029214752622399        1.1975495948451238
          71          24           2  0.5564        22.892329603344901        4.5388761611994299        1.5101499576714930
          72          24           2  0.5564        20.926258684389300        2.4837046618624798        2.1360328744062600
          73          25           1 -1.1128       -2.0821945809796500        13.160486424373470        1.7045215037220660
          74          25           2  0.5564      -0.87314600349146099        14.414924330391450        1.2404633823293250
          75          25           2  0.5564       -3.7092108629888703        13.838085472249199        1.1834994821169089
          76          26           1 -1.1128        6.6915953160885602        8.8386263957507996E-002  -20.631461430105301
          77          26           2  0.5564        5.2936138239461403        1.0521030546497612       -20.234618972415301
          78          26           2  0.5564        7.8557799088718996        1.3051146878649929       -21.187229843470199
          79          27           1 -1.1128        6.2021373876776700        28.161830523671398        28.447746065807102
          80          27           2  0.5564        6.4971047173006804        29.619754124184897        29.433805086867299
          81          27           2  0.5564        4.5272543463670800        27.593400946180200        29.085906532292402
          82          28           1 -1.1128        30.203679454785899       -1.6641550668710370       -14.335423558034220
          83          28           2  0.5564        31.315405254114602       -2.6858108563860301       -13.234015662605460
          84          28           2  0.5564        28.637663527701601       -2.6531752885560000       -14.479685240034481
          85          29           1 -1.1128        15.707194550709209        1.9454918029353898        4.7708211290892901
          86          29           2  0.5564        14.262895874576401        1.4544616225016520        5.5618415308248004
          87          29           2  0.5564        16.952977511697572        1.9837587542126400        6.1060259238771302
          88          30           1 -1.1128        4.3584073292499292       -7.7224408430880604        17.535202088908470
          89          30           2  0.5564        5.6948971377102895       -9.0003113513696409        17.730259605493050
          90          30           2  0.5564        2.9083638861105601       -8.6458554476129095        17.042304859197600
          91          31           1 -1.1128        34.430996492178899        28.865753454573902      -0.78272450464380006
          92          31           2  0.5564        35.469778868332199        30.182514523709099      -0.11620284154298910
          93          31           2  0.5564        32.794493785704901        29.521488372756899      -0.79034387983144794
          94          32           1 -1.1128        26.753228771470798        12.858205855173029        32.230977495785105
          95          32           2  0.5564        25.450640647253099        13.289044483405140        33.299239597366807
          96          32           2  0.5564        28.186963879325102        13.343336311069111        33.054331109192397

  Bonds

           1 	1           1           2
           2 	1           1           3
           3 	1           4           5
           4 	1           4           6
           5 	1           7           8
           6 	1           7           9
           7 	1          10          11
           8 	1          10          12
           9 	1          13          14
          10 	1          13          15
          11 	1          16          17
          12 	1          16          18
          13 	1          19          20
          14 	1          19          21
          15 	1          22          23
          16 	1          22          24
          17 	1          25          26
          18 	1          25          27
          19 	1          28          29
          20 	1          28          30
          21 	1          31          32
          22 	1          31          33
          23 	1          34          35
          24 	1          34          36
          25 	1          37          38
          26 	1          37          39
          27 	1          40          41
          28 	1          40          42
          29 	1          43          44
          30 	1          43          45
          31 	1          46          47
          32 	1          46          48
          33 	1          49          50
          34 	1          49          51
          35 	1          52          53
          36 	1          52          54
          37 	1          55          56
          38 	1          55          57
          39 	1          58          59
          40 	1          58          60
          41 	1          61          62
          42 	1          61          63
          43 	1          64          65
          44 	1          64          66
          45 	1          67          68
          46 	1          67          69
          47 	1          70          71
          48 	1          70          72
          49 	1          73          74
          50 	1          73          75
          51 	1          76          77
          52 	1          76          78
          53 	1          79          80
          54 	1          79          81
          55 	1          82          83
          56 	1          82          84
          57 	1          85          86
          58 	1          85          87
          59 	1          88          89
          60 	1          88          90
          61 	1          91          92
          62 	1          91          93
          63 	1          94          95
          64 	1          94          96

  Angles

           1 	1           2           1           3
           2 	1           5           4           6
           3 	1           8           7           9
           4 	1          11          10          12
           5 	1          14          13          15
           6 	1          17          16          18
           7 	1          20          19          21
           8 	1          23          22          24
           9 	1          26          25          27
          10 	1          29          28          30
          11 	1          32          31          33
          12 	1          35          34          36
          13 	1          38          37          39
          14 	1          41          40          42
          15 	1          44          43          45
          16 	1          47          46          48
          17 	1          50          49          51
          18 	1          53          52          54
          19 	1          56          55          57
          20 	1          59          58          60
          21 	1          62          61          63
          22 	1          65          64          66
          23 	1          68          67          69
          24 	1          71          70          72
          25 	1          74          73          75
          26 	1          77          76          78
          27 	1          80          79          81
          28 	1          83          82          84
          29 	1          86          85          87
          30 	1          89          88          90
          31 	1          92          91          93
          32 	1          95          94          96
