1
# CELL(abcABC):   13.17884    17.29009    24.21482    90.00000    66.14000    90.00000  cell{atomic_unit}  Traj: positions{atomic_unit} Step:         133  Bead:       0 
       C  1.60668e-1  0e+01  0e+01
