6
# CELL(abcABC):  200.00000   200.00000   200.00000    90.00000    90.00000    90.00000  Step:          17  Bead:       0 positions{angstrom}  cell{atomic_unit}
       O  1.00771e-01 -9.27528e-01  2.18380e-01
       H -7.09363e-01 -1.40515e+00  2.94863e-01
       H  6.82525e-01 -1.45012e+00 -3.12944e-01
       O  1.48338e+00  1.39136e+00  9.15677e-01
       H  9.17464e-01  1.92333e+00  1.44553e+00
       H  9.80853e-01  6.05825e-01  6.93768e-01
