# Hessian matrix (atomic units)
10 0 0
0 1 0
0 0 0.01 
