7
# CELL(abcABC):   25.29166    25.29166    25.29166    90.00000    90.00000    90.00000  Step:           0  Bead:       0 x_centroid{atomic_unit}  cell{atomic_unit}
       O  1.02130e+00 -1.84220e+00 -4.09276e-01
       O  5.52715e+00 -1.58596e+00  2.87988e-01
       H  3.47444e-01 -2.37735e+00 -2.03854e+00
       H  3.29434e+00 -1.71829e+00 -1.89719e-01
       H  6.23055e+00 -3.01079e+00  1.22313e+00
       H  6.67136e+00 -1.14921e+00 -1.08863e+00
       H  7.99951e-02 -3.68232e-01  1.74386e-01
7
# CELL(abcABC):   25.29166    25.29166    25.29166    90.00000    90.00000    90.00000  Step:           1  Bead:       0 x_centroid{atomic_unit}  cell{atomic_unit}
       O  1.02312e+00 -1.83926e+00 -4.11783e-01
       O  5.52616e+00 -1.58909e+00  2.85226e-01
       H  3.49405e-01 -2.37489e+00 -2.03274e+00
       H  3.29418e+00 -1.71825e+00 -1.88694e-01
       H  6.22832e+00 -3.00576e+00  1.21922e+00
       H  6.66769e+00 -1.15131e+00 -1.08356e+00
       H  8.32567e-02 -3.73467e-01  1.71667e-01
7
# CELL(abcABC):   25.29166    25.29166    25.29166    90.00000    90.00000    90.00000  Step:           2  Bead:       0 x_centroid{atomic_unit}  cell{atomic_unit}
       O  1.03288e+00 -1.83527e+00 -4.14149e-01
       O  5.51756e+00 -1.59334e+00  2.80213e-01
       H  3.52002e-01 -2.37107e+00 -2.02459e+00
       H  3.29385e+00 -1.71819e+00 -1.86524e-01
       H  6.22523e+00 -2.99872e+00  1.21333e+00
       H  6.66270e+00 -1.15460e+00 -1.07637e+00
       H  8.79192e-02 -3.80828e-01  1.67432e-01
7
# CELL(abcABC):   25.29166    25.29166    25.29166    90.00000    90.00000    90.00000  Step:           3  Bead:       0 x_centroid{atomic_unit}  cell{atomic_unit}
       O  1.04132e+00 -1.83375e+00 -4.14544e-01
       O  5.50962e+00 -1.59499e+00  2.77333e-01
       H  3.53451e-01 -2.36967e+00 -2.02137e+00
       H  3.29368e+00 -1.71816e+00 -1.85392e-01
       H  6.22352e+00 -2.99614e+00  1.21105e+00
       H  6.66033e+00 -1.15579e+00 -1.07367e+00
       H  9.02087e-02 -3.83529e-01  1.65934e-01
7
# CELL(abcABC):   25.29166    25.29166    25.29166    90.00000    90.00000    90.00000  Step:           4  Bead:       0 x_centroid{atomic_unit}  cell{atomic_unit}
       O  1.04539e+00 -1.83339e+00 -4.14344e-01
       O  5.50567e+00 -1.59539e+00  2.76284e-01
       H  3.54587e-01 -2.36994e+00 -2.02097e+00
       H  3.29367e+00 -1.71816e+00 -1.85303e-01
       H  6.22222e+00 -2.99600e+00  1.21103e+00
       H  6.65914e+00 -1.15549e+00 -1.07366e+00
       H  9.14479e-02 -3.83664e-01  1.66303e-01
7
# CELL(abcABC):   25.29166    25.29166    25.29166    90.00000    90.00000    90.00000  Step:           5  Bead:       0 x_centroid{atomic_unit}  cell{atomic_unit}
       O  1.04719e+00 -1.83320e+00 -4.14257e-01
       O  5.50392e+00 -1.59561e+00  2.75810e-01
       H  3.56027e-01 -2.37080e+00 -2.02116e+00
       H  3.29374e+00 -1.71818e+00 -1.85687e-01
       H  6.22061e+00 -2.99640e+00  1.21163e+00
       H  6.65784e+00 -1.15465e+00 -1.07433e+00
       H  9.27948e-02 -3.83207e-01  1.67337e-01
7
# CELL(abcABC):   25.29166    25.29166    25.29166    90.00000    90.00000    90.00000  Step:           6  Bead:       0 x_centroid{atomic_unit}  cell{atomic_unit}
       O  1.04985e+00 -1.83267e+00 -4.14291e-01
       O  5.50136e+00 -1.59620e+00  2.74939e-01
       H  3.60003e-01 -2.37312e+00 -2.02160e+00
       H  3.29396e+00 -1.71823e+00 -1.86939e-01
       H  6.21614e+00 -2.99737e+00  1.21322e+00
       H  6.65423e+00 -1.15237e+00 -1.07611e+00
       H  9.65728e-02 -3.82081e-01  1.70126e-01
7
# CELL(abcABC):   25.29166    25.29166    25.29166    90.00000    90.00000    90.00000  Step:           7  Bead:       0 x_centroid{atomic_unit}  cell{atomic_unit}
       O  1.05103e+00 -1.83223e+00 -4.14488e-01
       O  5.50028e+00 -1.59670e+00  2.74378e-01
       H  3.63875e-01 -2.37518e+00 -2.02178e+00
       H  3.29419e+00 -1.71829e+00 -1.88227e-01
       H  6.21172e+00 -2.99809e+00  1.21447e+00
       H  6.65063e+00 -1.15034e+00 -1.07760e+00
       H  1.00398e-01 -3.81227e-01  1.72597e-01
7
# CELL(abcABC):   25.29166    25.29166    25.29166    90.00000    90.00000    90.00000  Step:           8  Bead:       0 x_centroid{atomic_unit}  cell{atomic_unit}
       O  1.05078e+00 -1.83222e+00 -4.14564e-01
       O  5.50054e+00 -1.59673e+00  2.74358e-01
       H  3.65795e-01 -2.37599e+00 -2.02169e+00
       H  3.29430e+00 -1.71831e+00 -1.88895e-01
       H  6.20940e+00 -2.99830e+00  1.21475e+00
       H  6.64879e+00 -1.14954e+00 -1.07814e+00
       H  1.02519e-01 -3.80974e-01  1.73546e-01
7
# CELL(abcABC):   25.29166    25.29166    25.29166    90.00000    90.00000    90.00000  Step:           9  Bead:       0 x_centroid{atomic_unit}  cell{atomic_unit}
       O  1.05034e+00 -1.83255e+00 -4.14421e-01
       O  5.50092e+00 -1.59639e+00  2.74606e-01
       H  3.66159e-01 -2.37593e+00 -2.02157e+00
       H  3.29432e+00 -1.71832e+00 -1.89022e-01
       H  6.20879e+00 -2.99829e+00  1.21446e+00
       H  6.64841e+00 -1.14958e+00 -1.07814e+00
       H  1.03184e-01 -3.80996e-01  1.73456e-01
7
# CELL(abcABC):   25.29166    25.29166    25.29166    90.00000    90.00000    90.00000  Step:          10  Bead:       0 x_centroid{atomic_unit}  cell{atomic_unit}
       O  1.04989e+00 -1.83332e+00 -4.13998e-01
       O  5.50123e+00 -1.59560e+00  2.75089e-01
       H  3.66438e-01 -2.37568e+00 -2.02146e+00
       H  3.29434e+00 -1.71833e+00 -1.89093e-01
       H  6.20809e+00 -2.99833e+00  1.21385e+00
       H  6.64811e+00 -1.14983e+00 -1.07811e+00
       H  1.04035e-01 -3.80994e-01  1.73086e-01
7
# CELL(abcABC):   25.29166    25.29166    25.29166    90.00000    90.00000    90.00000  Step:          11  Bead:       0 x_centroid{atomic_unit}  cell{atomic_unit}
       O  1.04938e+00 -1.83526e+00 -4.12847e-01
       O  5.50138e+00 -1.59360e+00  2.76210e-01
       H  3.67087e-01 -2.37512e+00 -2.02134e+00
       H  3.29436e+00 -1.71834e+00 -1.89197e-01
       H  6.20640e+00 -2.99855e+00  1.21245e+00
       H  6.64745e+00 -1.15037e+00 -1.07815e+00
       H  1.06075e-01 -3.80843e-01  1.72247e-01
7
# CELL(abcABC):   25.29166    25.29166    25.29166    90.00000    90.00000    90.00000  Step:          12  Bead:       0 x_centroid{atomic_unit}  cell{atomic_unit}
       O  1.04923e+00 -1.83803e+00 -4.11135e-01
       O  5.50102e+00 -1.59074e+00  2.77688e-01
       H  3.68070e-01 -2.37448e+00 -2.02132e+00
       H  3.29438e+00 -1.71835e+00 -1.89268e-01
       H  6.20391e+00 -2.99903e+00  1.21061e+00
       H  6.64652e+00 -1.15100e+00 -1.07840e+00
       H  1.09012e-01 -3.80459e-01  1.71209e-01
7
# CELL(abcABC):   25.29166    25.29166    25.29166    90.00000    90.00000    90.00000  Step:          13  Bead:       0 x_centroid{atomic_unit}  cell{atomic_unit}
       O  1.04963e+00 -1.83996e+00 -4.09898e-01
       O  5.50029e+00 -1.58875e+00  2.78609e-01
       H  3.68838e-01 -2.37419e+00 -2.02145e+00
       H  3.29438e+00 -1.71836e+00 -1.89198e-01
       H  6.20205e+00 -2.99949e+00  1.20942e+00
       H  6.64583e+00 -1.15129e+00 -1.07872e+00
       H  1.11159e-01 -3.80049e-01  1.70618e-01
7
# CELL(abcABC):   25.29166    25.29166    25.29166    90.00000    90.00000    90.00000  Step:          14  Bead:       0 x_centroid{atomic_unit}  cell{atomic_unit}
       O  1.05001e+00 -1.84018e+00 -4.09748e-01
       O  5.49988e+00 -1.58853e+00  2.78622e-01
       H  3.68984e-01 -2.37428e+00 -2.02155e+00
       H  3.29435e+00 -1.71835e+00 -1.89028e-01
       H  6.20172e+00 -2.99964e+00  1.20934e+00
       H  6.64572e+00 -1.15120e+00 -1.07887e+00
       H  1.11504e-01 -3.79900e-01  1.70629e-01
7
# CELL(abcABC):   25.29166    25.29166    25.29166    90.00000    90.00000    90.00000  Step:          15  Bead:       0 x_centroid{atomic_unit}  cell{atomic_unit}
       O  1.05012e+00 -1.84001e+00 -4.09873e-01
       O  5.49981e+00 -1.58871e+00  2.78481e-01
       H  3.68920e-01 -2.37440e+00 -2.02160e+00
       H  3.29432e+00 -1.71834e+00 -1.88861e-01
       H  6.20183e+00 -2.99967e+00  1.20945e+00
       H  6.64580e+00 -1.15110e+00 -1.07891e+00
       H  1.11366e-01 -3.79872e-01  1.70701e-01
7
# CELL(abcABC):   25.29166    25.29166    25.29166    90.00000    90.00000    90.00000  Step:          16  Bead:       0 x_centroid{atomic_unit}  cell{atomic_unit}
       O  1.05016e+00 -1.83993e+00 -4.09951e-01
       O  5.49979e+00 -1.58879e+00  2.78406e-01
       H  3.68886e-01 -2.37449e+00 -2.02164e+00
       H  3.29429e+00 -1.71834e+00 -1.88646e-01
       H  6.20184e+00 -2.99970e+00  1.20945e+00
       H  6.64584e+00 -1.15101e+00 -1.07894e+00
       H  1.11351e-01 -3.79836e-01  1.70702e-01
7
# CELL(abcABC):   25.29166    25.29166    25.29166    90.00000    90.00000    90.00000  Step:          17  Bead:       0 x_centroid{atomic_unit}  cell{atomic_unit}
       O  1.05015e+00 -1.83985e+00 -4.10074e-01
       O  5.49984e+00 -1.58887e+00  2.78305e-01
       H  3.68824e-01 -2.37464e+00 -2.02169e+00
       H  3.29421e+00 -1.71832e+00 -1.88175e-01
       H  6.20185e+00 -2.99977e+00  1.20937e+00
       H  6.64591e+00 -1.15087e+00 -1.07897e+00
       H  1.11386e-01 -3.79766e-01  1.70618e-01
7
# CELL(abcABC):   25.29166    25.29166    25.29166    90.00000    90.00000    90.00000  Step:          18  Bead:       0 x_centroid{atomic_unit}  cell{atomic_unit}
       O  1.05010e+00 -1.83994e+00 -4.10050e-01
       O  5.49988e+00 -1.58877e+00  2.78346e-01
       H  3.68849e-01 -2.37470e+00 -2.02170e+00
       H  3.29416e+00 -1.71831e+00 -1.87908e-01
       H  6.20174e+00 -2.99985e+00  1.20919e+00
       H  6.64589e+00 -1.15081e+00 -1.07899e+00
       H  1.11548e-01 -3.79700e-01  1.70488e-01
7
# CELL(abcABC):   25.29166    25.29166    25.29166    90.00000    90.00000    90.00000  Step:          19  Bead:       0 x_centroid{atomic_unit}  cell{atomic_unit}
       O  1.05004e+00 -1.84001e+00 -4.10005e-01
       O  5.49993e+00 -1.58870e+00  2.78408e-01
       H  3.68898e-01 -2.37474e+00 -2.02167e+00
       H  3.29413e+00 -1.71831e+00 -1.87759e-01
       H  6.20167e+00 -2.99992e+00  1.20903e+00
       H  6.64583e+00 -1.15077e+00 -1.07898e+00
       H  1.11664e-01 -3.79641e-01  1.70358e-01
7
# CELL(abcABC):   25.29166    25.29166    25.29166    90.00000    90.00000    90.00000  Step:          20  Bead:       0 x_centroid{atomic_unit}  cell{atomic_unit}
       O  1.04999e+00 -1.84009e+00 -4.09916e-01
       O  5.49996e+00 -1.58860e+00  2.78507e-01
       H  3.68987e-01 -2.37480e+00 -2.02163e+00
       H  3.29410e+00 -1.71831e+00 -1.87623e-01
       H  6.20161e+00 -3.00003e+00  1.20883e+00
       H  6.64573e+00 -1.15071e+00 -1.07897e+00
       H  1.11782e-01 -3.79546e-01  1.70179e-01
7
# CELL(abcABC):   25.29166    25.29166    25.29166    90.00000    90.00000    90.00000  Step:          21  Bead:       0 x_centroid{atomic_unit}  cell{atomic_unit}
       O  1.04992e+00 -1.84012e+00 -4.09794e-01
       O  5.49999e+00 -1.58856e+00  2.78645e-01
       H  3.69134e-01 -2.37493e+00 -2.02152e+00
       H  3.29407e+00 -1.71830e+00 -1.87440e-01
       H  6.20165e+00 -3.00022e+00  1.20854e+00
       H  6.64556e+00 -1.15058e+00 -1.07893e+00
       H  1.11847e-01 -3.79370e-01  1.69879e-01
7
# CELL(abcABC):   25.29166    25.29166    25.29166    90.00000    90.00000    90.00000  Step:          22  Bead:       0 x_centroid{atomic_unit}  cell{atomic_unit}
       O  1.04974e+00 -1.84016e+00 -4.09282e-01
       O  5.50004e+00 -1.58848e+00  2.79223e-01
       H  3.69808e-01 -2.37561e+00 -2.02107e+00
       H  3.29389e+00 -1.71830e+00 -1.86615e-01
       H  6.20187e+00 -3.00116e+00  1.20729e+00
       H  6.64477e+00 -1.14988e+00 -1.07877e+00
       H  1.12064e-01 -3.78523e-01  1.68596e-01
7
# CELL(abcABC):   25.29166    25.29166    25.29166    90.00000    90.00000    90.00000  Step:          23  Bead:       0 x_centroid{atomic_unit}  cell{atomic_unit}
       O  1.04958e+00 -1.83986e+00 -4.08756e-01
       O  5.50006e+00 -1.58871e+00  2.79820e-01
       H  3.70613e-01 -2.37663e+00 -2.02047e+00
       H  3.29367e+00 -1.71829e+00 -1.85547e-01
       H  6.20249e+00 -3.00239e+00  1.20585e+00
       H  6.64381e+00 -1.14885e+00 -1.07853e+00
       H  1.11980e-01 -3.77398e-01  1.66996e-01
7
# CELL(abcABC):   25.29166    25.29166    25.29166    90.00000    90.00000    90.00000  Step:          24  Bead:       0 x_centroid{atomic_unit}  cell{atomic_unit}
       O  1.04936e+00 -1.83892e+00 -4.07845e-01
       O  5.50004e+00 -1.58955e+00  2.80880e-01
       H  3.72149e-01 -2.37884e+00 -2.01925e+00
       H  3.29322e+00 -1.71826e+00 -1.83423e-01
       H  6.20410e+00 -3.00492e+00  1.20314e+00
       H  6.64197e+00 -1.14662e+00 -1.07802e+00
       H  1.11400e-01 -3.75059e-01  1.63850e-01
7
# CELL(abcABC):   25.29166    25.29166    25.29166    90.00000    90.00000    90.00000  Step:          25  Bead:       0 x_centroid{atomic_unit}  cell{atomic_unit}
       O  1.04944e+00 -1.83847e+00 -4.07739e-01
       O  5.49992e+00 -1.59000e+00  2.80979e-01
       H  3.72454e-01 -2.37944e+00 -2.01897e+00
       H  3.29316e+00 -1.71825e+00 -1.83063e-01
       H  6.20465e+00 -3.00548e+00  1.20274e+00
       H  6.64159e+00 -1.14602e+00 -1.07788e+00
       H  1.11033e-01 -3.74518e-01  1.63277e-01
7
# CELL(abcABC):   25.29166    25.29166    25.29166    90.00000    90.00000    90.00000  Step:          26  Bead:       0 x_centroid{atomic_unit}  cell{atomic_unit}
       O  1.04957e+00 -1.83822e+00 -4.07865e-01
       O  5.49981e+00 -1.59028e+00  2.80813e-01
       H  3.72352e-01 -2.37954e+00 -2.01897e+00
       H  3.29320e+00 -1.71825e+00 -1.83202e-01
       H  6.20486e+00 -3.00547e+00  1.20297e+00
       H  6.64170e+00 -1.14592e+00 -1.07784e+00
       H  1.10761e-01 -3.74508e-01  1.63433e-01
7
# CELL(abcABC):   25.29166    25.29166    25.29166    90.00000    90.00000    90.00000  Step:          27  Bead:       0 x_centroid{atomic_unit}  cell{atomic_unit}
       O  1.04956e+00 -1.83818e+00 -4.07845e-01
       O  5.49979e+00 -1.59034e+00  2.80819e-01
       H  3.72355e-01 -2.37965e+00 -2.01892e+00
       H  3.29320e+00 -1.71824e+00 -1.83145e-01
       H  6.20492e+00 -3.00556e+00  1.20289e+00
       H  6.64169e+00 -1.14580e+00 -1.07779e+00
       H  1.10732e-01 -3.74413e-01  1.63334e-01
7
# CELL(abcABC):   25.29166    25.29166    25.29166    90.00000    90.00000    90.00000  Step:          28  Bead:       0 x_centroid{atomic_unit}  cell{atomic_unit}
       O  1.04957e+00 -1.83814e+00 -4.07930e-01
       O  5.49970e+00 -1.59049e+00  2.80582e-01
       H  3.71909e-01 -2.37982e+00 -2.01886e+00
       H  3.29335e+00 -1.71820e+00 -1.83391e-01
       H  6.20485e+00 -3.00555e+00  1.20302e+00
       H  6.64212e+00 -1.14560e+00 -1.07755e+00
       H  1.10746e-01 -3.74365e-01  1.63469e-01
7
# CELL(abcABC):   25.29166    25.29166    25.29166    90.00000    90.00000    90.00000  Step:          29  Bead:       0 x_centroid{atomic_unit}  cell{atomic_unit}
       O  1.04950e+00 -1.83812e+00 -4.07838e-01
       O  5.49963e+00 -1.59063e+00  2.80553e-01
       H  3.71699e-01 -2.38025e+00 -2.01858e+00
       H  3.29345e+00 -1.71817e+00 -1.83455e-01
       H  6.20480e+00 -3.00587e+00  1.20271e+00
       H  6.64227e+00 -1.14511e+00 -1.07721e+00
       H  1.10888e-01 -3.74020e-01  1.63146e-01
7
# CELL(abcABC):   25.29166    25.29166    25.29166    90.00000    90.00000    90.00000  Step:          30  Bead:       0 x_centroid{atomic_unit}  cell{atomic_unit}
       O  1.04877e+00 -1.83789e+00 -4.06658e-01
       O  5.49916e+00 -1.59176e+00  2.80728e-01
       H  3.70288e-01 -2.38436e+00 -2.01564e+00
       H  3.29421e+00 -1.71794e+00 -1.83632e-01
       H  6.20451e+00 -3.00926e+00  1.19910e+00
       H  6.64301e+00 -1.14042e+00 -1.07400e+00
       H  1.12224e-01 -3.70539e-01  1.59371e-01
7
# CELL(abcABC):   25.29166    25.29166    25.29166    90.00000    90.00000    90.00000  Step:          31  Bead:       0 x_centroid{atomic_unit}  cell{atomic_unit}
       O  1.04884e+00 -1.83776e+00 -4.06621e-01
       O  5.49923e+00 -1.59179e+00  2.80858e-01
       H  3.70486e-01 -2.38441e+00 -2.01552e+00
       H  3.29411e+00 -1.71800e+00 -1.83572e-01
       H  6.20459e+00 -3.00938e+00  1.19897e+00
       H  6.64276e+00 -1.14035e+00 -1.07404e+00
       H  1.12156e-01 -3.70491e-01  1.59189e-01
7
# CELL(abcABC):   25.29166    25.29166    25.29166    90.00000    90.00000    90.00000  Step:          32  Bead:       0 x_centroid{atomic_unit}  cell{atomic_unit}
       O  1.04896e+00 -1.83744e+00 -4.06397e-01
       O  5.49938e+00 -1.59192e+00  2.81204e-01
       H  3.70612e-01 -2.38513e+00 -2.01481e+00
       H  3.29393e+00 -1.71815e+00 -1.83446e-01
       H  6.20469e+00 -3.01021e+00  1.19818e+00
       H  6.64241e+00 -1.13946e+00 -1.07367e+00
       H  1.12207e-01 -3.69882e-01  1.58218e-01
7
# CELL(abcABC):   25.29166    25.29166    25.29166    90.00000    90.00000    90.00000  Step:          33  Bead:       0 x_centroid{atomic_unit}  cell{atomic_unit}
       O  1.04900e+00 -1.83707e+00 -4.06066e-01
       O  5.49943e+00 -1.59225e+00  2.81499e-01
       H  3.70282e-01 -2.38650e+00 -2.01368e+00
       H  3.29389e+00 -1.71826e+00 -1.83423e-01
       H  6.20477e+00 -3.01152e+00  1.19692e+00
       H  6.64241e+00 -1.13784e+00 -1.07276e+00
       H  1.12428e-01 -3.68757e-01  1.56765e-01
7
# CELL(abcABC):   25.29166    25.29166    25.29166    90.00000    90.00000    90.00000  Step:          34  Bead:       0 x_centroid{atomic_unit}  cell{atomic_unit}
       O  1.04906e+00 -1.83684e+00 -4.05980e-01
       O  5.49948e+00 -1.59240e+00  2.81614e-01
       H  3.69844e-01 -2.38736e+00 -2.01303e+00
       H  3.29384e+00 -1.71835e+00 -1.83473e-01
       H  6.20476e+00 -3.01227e+00  1.19627e+00
       H  6.64265e+00 -1.13687e+00 -1.07218e+00
       H  1.12578e-01 -3.68121e-01  1.56035e-01
7
# CELL(abcABC):   25.29166    25.29166    25.29166    90.00000    90.00000    90.00000  Step:          35  Bead:       0 x_centroid{atomic_unit}  cell{atomic_unit}
       O  1.04913e+00 -1.83673e+00 -4.06014e-01
       O  5.49948e+00 -1.59240e+00  2.81659e-01
       H  3.69443e-01 -2.38787e+00 -2.01271e+00
       H  3.29380e+00 -1.71840e+00 -1.83573e-01
       H  6.20464e+00 -3.01264e+00  1.19593e+00
       H  6.64294e+00 -1.13636e+00 -1.07181e+00
       H  1.12771e-01 -3.67795e-01  1.55762e-01
7
# CELL(abcABC):   25.29166    25.29166    25.29166    90.00000    90.00000    90.00000  Step:          36  Bead:       0 x_centroid{atomic_unit}  cell{atomic_unit}
       O  1.04917e+00 -1.83659e+00 -4.06043e-01
       O  5.49946e+00 -1.59243e+00  2.81738e-01
       H  3.68973e-01 -2.38857e+00 -2.01227e+00
       H  3.29377e+00 -1.71844e+00 -1.83763e-01
       H  6.20451e+00 -3.01311e+00  1.19546e+00
       H  6.64325e+00 -1.13572e+00 -1.07129e+00
       H  1.13043e-01 -3.67341e-01  1.55422e-01
7
# CELL(abcABC):   25.29166    25.29166    25.29166    90.00000    90.00000    90.00000  Step:          37  Bead:       0 x_centroid{atomic_unit}  cell{atomic_unit}
       O  1.04921e+00 -1.83642e+00 -4.06117e-01
       O  5.49945e+00 -1.59243e+00  2.81853e-01
       H  3.68529e-01 -2.38926e+00 -2.01187e+00
       H  3.29372e+00 -1.71846e+00 -1.84012e-01
       H  6.20444e+00 -3.01352e+00  1.19499e+00
       H  6.64352e+00 -1.13519e+00 -1.07076e+00
       H  1.13301e-01 -3.66934e-01  1.55157e-01
7
# CELL(abcABC):   25.29166    25.29166    25.29166    90.00000    90.00000    90.00000  Step:          38  Bead:       0 x_centroid{atomic_unit}  cell{atomic_unit}
       O  1.04926e+00 -1.83635e+00 -4.06279e-01
       O  5.49946e+00 -1.59228e+00  2.81968e-01
       H  3.68429e-01 -2.38930e+00 -2.01191e+00
       H  3.29361e+00 -1.71845e+00 -1.84189e-01
       H  6.20446e+00 -3.01341e+00  1.19497e+00
       H  6.64356e+00 -1.13540e+00 -1.07070e+00
       H  1.13380e-01 -3.67007e-01  1.55381e-01
7
# CELL(abcABC):   25.29166    25.29166    25.29166    90.00000    90.00000    90.00000  Step:          39  Bead:       0 x_centroid{atomic_unit}  cell{atomic_unit}
       O  1.04929e+00 -1.83636e+00 -4.06408e-01
       O  5.49947e+00 -1.59216e+00  2.82022e-01
       H  3.68624e-01 -2.38900e+00 -2.01218e+00
       H  3.29353e+00 -1.71842e+00 -1.84218e-01
       H  6.20452e+00 -3.01311e+00  1.19521e+00
       H  6.64339e+00 -1.13587e+00 -1.07094e+00
       H  1.13332e-01 -3.67289e-01  1.55751e-01
7
# CELL(abcABC):   25.29166    25.29166    25.29166    90.00000    90.00000    90.00000  Step:          40  Bead:       0 x_centroid{atomic_unit}  cell{atomic_unit}
       O  1.04929e+00 -1.83636e+00 -4.06419e-01
       O  5.49948e+00 -1.59217e+00  2.82026e-01
       H  3.68693e-01 -2.38891e+00 -2.01224e+00
       H  3.29351e+00 -1.71839e+00 -1.84163e-01
       H  6.20459e+00 -3.01305e+00  1.19527e+00
       H  6.64333e+00 -1.13598e+00 -1.07101e+00
       H  1.13275e-01 -3.67357e-01  1.55790e-01
7
# CELL(abcABC):   25.29166    25.29166    25.29166    90.00000    90.00000    90.00000  Step:          41  Bead:       0 x_centroid{atomic_unit}  cell{atomic_unit}
       O  1.04927e+00 -1.83631e+00 -4.06346e-01
       O  5.49949e+00 -1.59225e+00  2.82102e-01
       H  3.68769e-01 -2.38905e+00 -2.01214e+00
       H  3.29348e+00 -1.71833e+00 -1.84050e-01
       H  6.20471e+00 -3.01323e+00  1.19509e+00
       H  6.64319e+00 -1.13582e+00 -1.07096e+00
       H  1.13251e-01 -3.67214e-01  1.55549e-01
7
# CELL(abcABC):   25.29166    25.29166    25.29166    90.00000    90.00000    90.00000  Step:          42  Bead:       0 x_centroid{atomic_unit}  cell{atomic_unit}
       O  1.04927e+00 -1.83626e+00 -4.06304e-01
       O  5.49949e+00 -1.59230e+00  2.82165e-01
       H  3.68734e-01 -2.38929e+00 -2.01199e+00
       H  3.29346e+00 -1.71830e+00 -1.83997e-01
       H  6.20476e+00 -3.01345e+00  1.19488e+00
       H  6.64316e+00 -1.13558e+00 -1.07083e+00
       H  1.13310e-01 -3.67027e-01  1.55318e-01
7
# CELL(abcABC):   25.29166    25.29166    25.29166    90.00000    90.00000    90.00000  Step:          43  Bead:       0 x_centroid{atomic_unit}  cell{atomic_unit}
       O  1.04929e+00 -1.83626e+00 -4.06317e-01
       O  5.49949e+00 -1.59229e+00  2.82190e-01
       H  3.68690e-01 -2.38935e+00 -2.01196e+00
       H  3.29344e+00 -1.71828e+00 -1.84015e-01
       H  6.20473e+00 -3.01349e+00  1.19484e+00
       H  6.64317e+00 -1.13553e+00 -1.07080e+00
       H  1.13359e-01 -3.66993e-01  1.55305e-01
7
# CELL(abcABC):   25.29166    25.29166    25.29166    90.00000    90.00000    90.00000  Step:          44  Bead:       0 x_centroid{atomic_unit}  cell{atomic_unit}
       O  1.04930e+00 -1.83629e+00 -4.06354e-01
       O  5.49949e+00 -1.59226e+00  2.82170e-01
       H  3.68623e-01 -2.38931e+00 -2.01200e+00
       H  3.29345e+00 -1.71828e+00 -1.84066e-01
       H  6.20469e+00 -3.01344e+00  1.19491e+00
       H  6.64325e+00 -1.13559e+00 -1.07081e+00
       H  1.13379e-01 -3.67047e-01  1.55394e-01
7
# CELL(abcABC):   25.29166    25.29166    25.29166    90.00000    90.00000    90.00000  Step:          45  Bead:       0 x_centroid{atomic_unit}  cell{atomic_unit}
       O  1.04930e+00 -1.83628e+00 -4.06339e-01
       O  5.49949e+00 -1.59227e+00  2.82175e-01
       H  3.68646e-01 -2.38932e+00 -2.01199e+00
       H  3.29345e+00 -1.71827e+00 -1.84052e-01
       H  6.20470e+00 -3.01346e+00  1.19489e+00
       H  6.64322e+00 -1.13557e+00 -1.07080e+00
       H  1.13379e-01 -3.67031e-01  1.55364e-01
7
# CELL(abcABC):   25.29166    25.29166    25.29166    90.00000    90.00000    90.00000  Step:          46  Bead:       0 x_centroid{atomic_unit}  cell{atomic_unit}
       O  1.04929e+00 -1.83630e+00 -4.06311e-01
       O  5.49949e+00 -1.59227e+00  2.82193e-01
       H  3.68679e-01 -2.38933e+00 -2.01198e+00
       H  3.29345e+00 -1.71826e+00 -1.84024e-01
       H  6.20472e+00 -3.01348e+00  1.19485e+00
       H  6.64317e+00 -1.13556e+00 -1.07080e+00
       H  1.13388e-01 -3.67010e-01  1.55318e-01
7
# CELL(abcABC):   25.29166    25.29166    25.29166    90.00000    90.00000    90.00000  Step:          47  Bead:       0 x_centroid{atomic_unit}  cell{atomic_unit}
       O  1.04928e+00 -1.83628e+00 -4.06303e-01
       O  5.49949e+00 -1.59229e+00  2.82193e-01
       H  3.68671e-01 -2.38936e+00 -2.01195e+00
       H  3.29345e+00 -1.71826e+00 -1.84013e-01
       H  6.20473e+00 -3.01352e+00  1.19482e+00
       H  6.64318e+00 -1.13551e+00 -1.07078e+00
       H  1.13380e-01 -3.66980e-01  1.55275e-01
7
# CELL(abcABC):   25.29166    25.29166    25.29166    90.00000    90.00000    90.00000  Step:          48  Bead:       0 x_centroid{atomic_unit}  cell{atomic_unit}
       O  1.04930e+00 -1.83626e+00 -4.06327e-01
       O  5.49948e+00 -1.59231e+00  2.82182e-01
       H  3.68640e-01 -2.38939e+00 -2.01194e+00
       H  3.29345e+00 -1.71826e+00 -1.84037e-01
       H  6.20472e+00 -3.01352e+00  1.19484e+00
       H  6.64321e+00 -1.13549e+00 -1.07077e+00
       H  1.13378e-01 -3.66979e-01  1.55297e-01
7
# CELL(abcABC):   25.29166    25.29166    25.29166    90.00000    90.00000    90.00000  Step:          49  Bead:       0 x_centroid{atomic_unit}  cell{atomic_unit}
       O  1.04930e+00 -1.83626e+00 -4.06320e-01
       O  5.49948e+00 -1.59231e+00  2.82188e-01
       H  3.68637e-01 -2.38941e+00 -2.01193e+00
       H  3.29345e+00 -1.71826e+00 -1.84040e-01
       H  6.20472e+00 -3.01353e+00  1.19482e+00
       H  6.64320e+00 -1.13547e+00 -1.07075e+00
       H  1.13393e-01 -3.66964e-01  1.55278e-01
7
# CELL(abcABC):   25.29166    25.29166    25.29166    90.00000    90.00000    90.00000  Step:          50  Bead:       0 x_centroid{atomic_unit}  cell{atomic_unit}
       O  1.04930e+00 -1.83628e+00 -4.06314e-01
       O  5.49948e+00 -1.59228e+00  2.82190e-01
       H  3.68639e-01 -2.38939e+00 -2.01193e+00
       H  3.29346e+00 -1.71826e+00 -1.84056e-01
       H  6.20470e+00 -3.01352e+00  1.19482e+00
       H  6.64320e+00 -1.13549e+00 -1.07075e+00
       H  1.13411e-01 -3.66975e-01  1.55291e-01
7
# CELL(abcABC):   25.29166    25.29166    25.29166    90.00000    90.00000    90.00000  Step:          51  Bead:       0 x_centroid{atomic_unit}  cell{atomic_unit}
       O  1.04930e+00 -1.83628e+00 -4.06316e-01
       O  5.49948e+00 -1.59228e+00  2.82188e-01
       H  3.68644e-01 -2.38938e+00 -2.01194e+00
       H  3.29346e+00 -1.71826e+00 -1.84052e-01
       H  6.20470e+00 -3.01351e+00  1.19484e+00
       H  6.64320e+00 -1.13550e+00 -1.07077e+00
       H  1.13401e-01 -3.66985e-01  1.55301e-01
7
# CELL(abcABC):   25.29166    25.29166    25.29166    90.00000    90.00000    90.00000  Step:          52  Bead:       0 x_centroid{atomic_unit}  cell{atomic_unit}
       O  1.04930e+00 -1.83627e+00 -4.06319e-01
       O  5.49948e+00 -1.59229e+00  2.82187e-01
       H  3.68647e-01 -2.38937e+00 -2.01194e+00
       H  3.29345e+00 -1.71826e+00 -1.84048e-01
       H  6.20471e+00 -3.01350e+00  1.19484e+00
       H  6.64320e+00 -1.13551e+00 -1.07078e+00
       H  1.13387e-01 -3.66989e-01  1.55303e-01
7
# CELL(abcABC):   25.29166    25.29166    25.29166    90.00000    90.00000    90.00000  Step:          53  Bead:       0 x_centroid{atomic_unit}  cell{atomic_unit}
       O  1.04930e+00 -1.83627e+00 -4.06321e-01
       O  5.49949e+00 -1.59229e+00  2.82188e-01
       H  3.68650e-01 -2.38938e+00 -2.01194e+00
       H  3.29345e+00 -1.71826e+00 -1.84043e-01
       H  6.20471e+00 -3.01351e+00  1.19484e+00
       H  6.64320e+00 -1.13550e+00 -1.07078e+00
       H  1.13382e-01 -3.66985e-01  1.55301e-01
7
# CELL(abcABC):   25.29166    25.29166    25.29166    90.00000    90.00000    90.00000  Step:          54  Bead:       0 x_centroid{atomic_unit}  cell{atomic_unit}
       O  1.04930e+00 -1.83627e+00 -4.06320e-01
       O  5.49949e+00 -1.59229e+00  2.82188e-01
       H  3.68651e-01 -2.38938e+00 -2.01194e+00
       H  3.29345e+00 -1.71826e+00 -1.84041e-01
       H  6.20471e+00 -3.01351e+00  1.19484e+00
       H  6.64320e+00 -1.13551e+00 -1.07078e+00
       H  1.13382e-01 -3.66985e-01  1.55300e-01
