LAMMPS Atom File

8 atoms

1 atom types

0.0 5.4225 xlo xhi
0.0 5.4225 ylo yhi
0.0 5.4225 zlo zhi

Masses

1 28.085 # Si

Atoms

1  1  0.00000000  0.00000000  0.00000000  # Si
2  1  1.35562500  1.35562500  1.35562500  # Si
3  1  0.00000000  2.71125000  2.71125000  # Si
4  1  1.35562500  4.06687500  4.06687500  # Si
5  1  2.71125000  0.00000000  2.71125000  # Si
6  1  4.06687500  1.35562500  4.06687500  # Si
7  1  2.71125000  2.71125000  0.00000000  # Si
8  1  4.06687500  4.06687500  1.35562500  # Si
