#Bead    Energy (eV)
0     0.1365818193223151
1     0.13736278574418653
2     0.13880161156750337
3     0.140669111785199
4     0.14266260690530444
5     0.14444690811922556
6     0.14570436670541514
7     0.1461898028223269
8     0.14578512548453018
9     0.1445867977651491
10     0.14283492868599137
11     0.1408209840856736
12     0.13883448387904088
13     0.13711867560507696
14     0.13585742980979526
15     0.13518915267680912
