#Bead    Energy (eV)
0     0.13857720350738936
1     0.13920147528547158
2     0.14035067732942832
3     0.14184025371377681
4     0.1434261657376552
5     0.1448386808264598
6     0.14582482368880598
7     0.14619080064837642
8     0.1458440396815485
9     0.14485698814815814
10     0.14341517595541123
11     0.14175012343604315
12     0.14009791466568178
13     0.13866763008996588
14     0.1376200995624207
15     0.13706637744723488
