#Bead    Energy (eV)
0     0.11961083636815938
1     0.12168664029273195
2     0.1255549427255412
3     0.13060817863957394
4     0.13602533286215157
5     0.1409345190007944
6     0.14452697809661688
7     0.1461442184491367
8     0.1454354510180322
9     0.14271315839304216
10     0.1387234297430708
11     0.13420235556590562
12     0.12967299880986025
13     0.12566666393990525
14     0.12267865294765164
15     0.12108534451897582
