#Bead    Energy (eV)
0     0.13564405043411262
1     0.13649841426965775
2     0.13807297203647503
3     0.14011772609588732
4     0.1423022840552975
5     0.14426122133649408
6     0.14564664125016716
7     0.14618905209117888
8     0.14575820657043093
9     0.14446243010868962
10     0.14256825314380392
11     0.14039548084490452
12     0.1382576361339662
13     0.13640900160779257
14     0.13504775007123526
15     0.13432577976813345
