#Bead    Energy (eV)
0     0.13800978452383972
1     0.13867869566020163
2     0.1399103802922583
3     0.14150754045133687
4     0.14320952161738285
5     0.14472776790822098
6     0.1457909115617625
7     0.1461906089910128
8     0.14582708477455458
9     0.14477942528250837
10     0.14324842740350557
11     0.14148259255038342
12     0.13973336916861442
13     0.13822110782060923
14     0.13711260487553908
15     0.13652622588053687
