#Bead    Energy (eV)
0     0.13825442026320256
1     0.1389040946390757
2     0.1401002315596406
3     0.1416510227482043
4     0.1433029796649878
5     0.14477564076741753
6     0.1458055693283537
7     0.1461907015533089
8     0.14583437327466642
9     0.1448127891709189
10     0.1433201379712033
11     0.14159759293629584
12     0.13988999449203338
13     0.13841295304625958
14     0.13733071104703284
15     0.13675839994459582
