#Bead    Energy (eV)
0     0.13868364218205256
1     0.13929953199849185
2     0.14043324893922068
3     0.14190263010814
4     0.1434667535392989
5     0.14485943590355374
6     0.14583115071922406
7     0.1461908273222357
8     0.14584723976488212
9     0.14487160785265998
10     0.14344662157500512
11     0.14180062236336408
12     0.14016679741347038
13     0.13875201523568115
14     0.13771594786456398
15     0.13716836312327987
