#Bead    Energy (eV)
0     0.10477158290065992
1     0.10744501822385662
2     0.11300882313036195
3     0.12088811927480793
4     0.12983177509709246
5     0.13806731035276731
6     0.14397224775558426
7     0.1461906211205283
8     0.1441380352245253
9     0.1389060169711805
10     0.1320037780160444
11     0.12429404670839665
12     0.1167128725071067
13     0.11034615568268052
14     0.10592987924526506
15     0.10381457027019807
