#Bead    Energy (eV)
0     0.12779616982302405
1     0.12927261128951345
2     0.13199397848856598
3     0.1355289962813415
4     0.13931026693386392
5     0.14271834751259405
6     0.14516485858535155
7     0.1461800180989455
8     0.1455336484410895
9     0.14344736417476336
10     0.1404219679841424
11     0.13700769126672943
12     0.13363368660354177
13     0.13066864482140672
14     0.12846247921255227
15     0.12728607542923076
