#Bead    Energy (eV)
0     0.13767919451611116
1     0.13837408163317105
2     0.13965377385530112
3     0.1413135670178166
4     0.14308310727487317
5     0.14466295487892517
6     0.14577102141725787
7     0.14619046139930714
8     0.14581728208356529
9     0.14473451003171922
10     0.14315193341478116
11     0.1413279729791101
12     0.13952296903138908
13     0.13796334126038326
14     0.13681940341969137
15     0.13621403614864838
