#Bead    Energy (eV)
0     0.13421326823764756
1     0.1351795392085013
2     0.13696105552450846
3     0.1392761105466777
4     0.1417518970955967
5     0.14397701268094557
6     0.1455578347640275
7     0.14618765218496788
8     0.14571754153674715
9     0.14427461526220658
10     0.14216655784301252
11     0.1397565709764386
12     0.13739139176528584
13     0.1353400505811195
14     0.13382579035928036
15     0.13302155143351582
