#Bead    Energy (eV)
0     0.13187359656973582
1     0.13302276355392886
2     0.13514219636313662
3     0.1378982595231344
4     0.1408489747603094
5     0.14350789443825132
6     0.14540880473620935
7     0.14618454715952503
8     0.14565557531940132
9     0.14398063812620526
10     0.14153591997260637
11     0.13875511794245843
12     0.13602615366862078
13     0.1336461309861989
14     0.131882765111852
15     0.13094428756242057
