#Bead    Energy (eV)
0     0.13722404023181523
1     0.13795465417635913
2     0.13930038643648315
3     0.14104636184684624
4     0.1429088409727804
5     0.14457349627604588
6     0.1457434810510513
7     0.1461902179764247
8     0.14580388429634314
9     0.14467301295294807
10     0.14301988083095427
11     0.14111659274354277
12     0.1392356597507
13     0.13761113034787423
14     0.13641849551656487
15     0.13578702216633456
