#Bead    Energy (eV)
0     0.13843798807718916
1     0.13907321886927496
2     0.14024266827316792
3     0.14175865144134214
4     0.14337305405007456
5     0.14481150965902675
6     0.14581653147666265
7     0.14619076120971633
8     0.14583986374121108
9     0.1448379005798483
10     0.14337412761413224
11     0.14168422613012305
12     0.14000806203932517
13     0.13855756708960315
14     0.13749505653531466
15     0.13693331300523848
