3
# CELL(abcABC):   35.23300    35.23300    35.23300    90.00000    90.00000    90.00000  Step:           3  Bead:       0 positions{angstrom}  cell{atomic_unit}
O       0.00000000     -0.06752644      0.00000000 O
H       0.77228605      0.52376322     -0.00000000 H
H      -0.77228605      0.52376322     -0.00000000 H
