#Bead    Energy (eV)
0     0.042088744413916156
1     0.04210428149256628
2     0.04213604523791847
3     0.04218544909864358
4     0.04225470075102366
5     0.042346911648582494
6     0.04246625059729074
7     0.04261814782168433
8     0.042809557540910696
9     0.04304928842450113
10     0.04334841221332773
11     0.04372076089081081
12     0.0441835214898591
13     0.04475793404213838
14     0.045470091063186655
15     0.0463518245705576
16     0.04744164664467103
17     0.048785679026471386
18     0.05043846264773974
19     0.052463475506141576
20     0.05493310352229413
21     0.05792770228248838
22     0.06153325992226248
23     0.06583703282414399
24     0.07092039956354898
25     0.07684810883447224
26     0.08365270609036946
27     0.09131224181122999
28     0.09971402935088211
29     0.10860521741246201
30     0.11758395014083117
31     0.12609440121935803
32     0.13350642086169745
33     0.13944145352444956
34     0.14364005822719678
35     0.14587145411584898
36     0.14595660424021498
37     0.14398079802593797
38     0.14036782191546796
39     0.1355681404838385
40     0.1297439031797784
41     0.12292919419310921
42     0.11525211261401658
43     0.10710332283476995
44     0.09887559611948059
45     0.0908716745187629
46     0.08330288548441715
47     0.07627845296459117
48     0.06985459576280433
49     0.06405492989453869
50     0.05887807226127574
51     0.054303888578283284
52     0.05029041776875599
53     0.04678598035031476
54     0.04374315914565484
55     0.04111944103004751
56     0.03887723900238802
57     0.03698379829296657
58     0.035411036663021166
59     0.03413535468352987
60     0.03313744084941658
61     0.032402089247400435
62     0.03191804216965744
63     0.03167786608450653
