#Bead    Energy (eV)
0     0.04188996657777692
1     0.041900863526889834
2     0.041923123290036494
3     0.04195770050408234
4     0.0420060855131063
5     0.04207037759868062
6     0.042153387961075615
7     0.04225877714797312
8     0.04239123290766601
9     0.042556695720057956
10     0.04276264043735885
11     0.043018423378940955
12     0.043335704593480864
13     0.04372895439217363
14     0.044216051019865206
15     0.04481897152736948
16     0.04556456922968684
17     0.04648541682458694
18     0.04762067205218661
19     0.04901688998007385
20     0.05072865960581607
21     0.05281887968573434
22     0.05535840789837423
23     0.058424719865035474
24     0.06209910701146486
25     0.066461841209792
26     0.07158467096788483
27     0.07752004091605551
28     0.08428662141762541
29     0.09185113866674895
30     0.10009593976347193
31     0.10877697963014449
32     0.11751915734160046
33     0.12581135530799012
34     0.13307220508135698
35     0.13895092600109205
36     0.1432150762092829
37     0.1456581628459286
38     0.14610963278888334
39     0.14458378473150957
40     0.14143639238751873
41     0.13709530919860483
42     0.1317981110496677
43     0.1255805307751963
44     0.11851733915702649
45     0.1108844393473955
46     0.10306701924110809
47     0.09537350522366975
48     0.08803268331193705
49     0.08118650169152661
50     0.07490294300227612
51     0.06921489462993596
52     0.06412983710469453
53     0.05963651004553192
54     0.05571064347467451
55     0.05231629164973843
56     0.049410067695638174
57     0.04695241828952321
58     0.044908869850933196
59     0.04325007570479916
60     0.041951779568970234
61     0.04099473574992911
62     0.040364615621776574
63     0.040051921394414956
