#Bead    Energy (eV)
0     0.04234439533764382
1     0.04236839918367198
2     0.04241646418346911
3     0.042491041261955256
4     0.04259592864722523
5     0.0427364938749353
6     0.04291997426332715
7     0.043155883611461984
8     0.043456532068844596
9     0.04383767518487475
10     0.04431930181258359
11     0.04492660150786696
12     0.04569109948336716
13     0.046651938453812235
14     0.047857224189416805
15     0.04936536982338376
16     0.051246305276850423
17     0.053582133156981245
18     0.05646672187031824
19     0.06000354373929622
20     0.06430080989636294
21     0.06946206310883705
22     0.07557047018988694
23     0.08266564556459426
24     0.09071642386380709
25     0.09958258888219103
26     0.10895817794979358
27     0.11836689708293813
28     0.1271626427898523
29     0.1346624827671432
30     0.14049189952087515
31     0.14438781779879103
32     0.1461183316080246
33     0.1455386658906989
34     0.14288462745816183
35     0.13865439360417323
36     0.1332488873430738
37     0.12672450310693636
38     0.11912366851096838
39     0.11071997429279795
40     0.10198346160961576
41     0.09330364699146029
42     0.08497176507698755
43     0.0771570468546294
44     0.06994829599404244
45     0.06339300110857964
46     0.05750629211475038
47     0.05227498284978294
48     0.04764859783869698
49     0.04356838475978137
50     0.03997986115273254
51     0.036833192146592995
52     0.03408329023461092
53     0.031689780850504994
54     0.029616866329690503
55     0.02783313847620978
56     0.026311487396144147
57     0.025028536469708564
58     0.023964278035207696
59     0.023101911060134962
60     0.022427684836963575
61     0.02193076017963605
62     0.02160309437298838
63     0.021439339957655675
