#Bead    Energy (eV)
0     0.04190112347991632
1     0.04191227222750605
2     0.04193504739395501
3     0.04197042782422024
4     0.04201994168798369
5     0.04208574159563933
6     0.04217071020819507
7     0.04227860113177584
8     0.04241422118397822
9     0.042583661402873
10     0.042794585339684235
11     0.0430565840548092
12     0.0433816075310742
13     0.04378448147259509
14     0.04428351599324344
15     0.04490120753726749
16     0.04566502615786451
17     0.046608265191370644
18     0.04777090708953561
19     0.049200424935613704
20     0.05095239095406812
21     0.05309069838799945
22     0.05568712003578204
23     0.0588198271956021
24     0.06257038445017278
25     0.06701863650402974
26     0.07223484669127235
27     0.07826848798827281
28     0.08513330769874043
29     0.09278856389495131
30     0.10110314169930694
31     0.10981747812682267
32     0.11854004522019156
33     0.12674291669958238
34     0.13385625058511375
35     0.13955600534242216
36     0.1436133990185933
37     0.14582318486847906
38     0.14602295759975162
39     0.1442714719930307
40     0.14094719229696237
41     0.13647362444228398
42     0.13104755756314748
43     0.12470261152469449
44     0.11752673115133551
45     0.10982886031336865
46     0.10198894378796454
47     0.09430611772204446
48     0.08699989561291781
49     0.08020040509123763
50     0.07397006082848108
51     0.0683382518477484
52     0.06330973269025028
53     0.05887119799539318
54     0.054996742193373624
55     0.05164789751609006
56     0.048780991888003396
57     0.04635682480064937
58     0.04434126467534778
59     0.04270527891481764
60     0.041424885527479006
61     0.04048106531781924
62     0.039859663134455756
63     0.03955129837109909
