#Bead    Energy (eV)
0     0.041893194545286803
1     0.04190416430686307
2     0.041926573107446304
3     0.041961382581028335
4     0.04201009400488142
5     0.042074822074995806
6     0.042158398647329405
7     0.04226451116876075
8     0.04239788180676558
9     0.04256449456535044
10     0.042771878851080275
11     0.043029458855995656
12     0.043348978471638724
13     0.04374501080009371
14     0.04423555902579416
15     0.04484275050552148
16     0.04559361710077131
17     0.04652094024260626
18     0.047664116713822265
19     0.04906996792176053
20     0.05079336851582768
21     0.05289750679779858
22     0.055453507909553244
23     0.05853905262363751
24     0.06223551678426397
25     0.06662305590417485
26     0.07177299811383939
27     0.0777369397030407
28     0.08453213980582987
29     0.09212319131119805
30     0.10038859382054334
31     0.10907979033504547
32     0.11781692566332927
33     0.1260840033375966
34     0.13330230048462352
35     0.13912928683748174
36     0.1433336350927979
37     0.1457092052023126
38     0.14608760797734582
39     0.14449567470983662
40     0.14129631180244404
41     0.13691652159688794
42     0.13158200535880082
43     0.1253274946332697
44     0.11823120975875165
45     0.11057888046994681
46     0.1027544559205986
47     0.09506366259704169
48     0.08773262780429705
49     0.08089985610521704
50     0.07463164058079062
51     0.0689598456643313
52     0.06389115372324804
53     0.059413704718590934
54     0.0555027659978752
55     0.05212166261610249
56     0.04922688615920054
57     0.046778985655057254
58     0.04474358682496325
59     0.04309143424163736
60     0.04179835134430192
61     0.040845158289268026
62     0.04021757689517635
63     0.03990614345230872
