#Bead    Energy (eV)
0     0.04192071540988187
1     0.0419323074659327
2     0.041955990079457384
3     0.04199278480627341
4     0.042044286552461875
5     0.04211274201613616
6     0.04220115993157387
7     0.04231345807011824
8     0.04245465327597851
9     0.04263110210922754
10     0.0428508008207388
11     0.04312375419806772
12     0.04346242297780677
13     0.0438822585251563
14     0.044402330603632356
15     0.04504604824880446
16     0.04584196357317651
17     0.0468246318442424
18     0.048035475967952594
19     0.04952356670692098
20     0.05134617851734779
21     0.05356891217067314
22     0.05626508828932307
23     0.05951401310273079
24     0.06339760837238655
25     0.0679948020022467
26     0.07337303174070849
27     0.07957628194545846
28     0.08660933980433268
29     0.09441758277051122
30     0.10284529374457874
31     0.11160603143573884
32     0.12027940154082536
33     0.12830925439547033
34     0.13516063745919746
35     0.14054456422087022
36     0.14423765400455962
37     0.14603739091462428
38     0.1458015548287259
39     0.14367160724352815
40     0.14005436089814596
41     0.13535457306281404
42     0.12970263347716052
43     0.1231355859872112
44     0.11577438033651932
45     0.10797666764720155
46     0.10010848771379521
47     0.09245291308885899
48     0.08521233556481599
49     0.07849720207998781
50     0.07236163578686053
51     0.06682912146252433
52     0.06189983727812716
53     0.05755706525847329
54     0.05377159904088672
55     0.05050090727634307
56     0.04770150555426588
57     0.04533480856129836
58     0.043367278846348535
59     0.04177042806829096
60     0.04052074871552562
61     0.03959961291343041
62     0.03899316496290895
63     0.03869222642449964
