#Bead    Energy (eV)
0     0.04196953734854048
1     0.041982244582010456
2     0.04200821034582581
3     0.04204856445668673
4     0.04210507099661592
5     0.04218021520097934
6     0.0422773254634851
7     0.042400735818370526
8     0.04255599564613359
9     0.0427501346602363
10     0.042991992324205495
11     0.04329262147675258
12     0.04366577571654324
13     0.04412848842402384
14     0.044701747305799906
15     0.04541126080788455
16     0.046288299984122636
17     0.04737057924044942
18     0.04870310910550324
19     0.05033891071988255
20     0.052339422008515414
21     0.05477434724113537
22     0.0577206049623673
23     0.06125991898479421
24     0.06547448682037978
25     0.07044007697947366
26     0.07621589855431567
27     0.08283072682273204
28     0.09026515712253111
29     0.09842335493072557
30     0.10708536882685105
31     0.11589740119638758
32     0.12436590372587204
33     0.13189207122712596
34     0.13806809596268665
35     0.14264654374109662
36     0.14541030270912325
37     0.14617172195436134
38     0.14489282271958023
39     0.14190099182296279
40     0.1376338743489742
41     0.13237158088241263
42     0.12615227010197355
43     0.11904056059282447
44     0.11129692262292946
45     0.10332175096641658
46     0.09544087764730547
47     0.08789775407896246
48     0.08084439696876068
49     0.07435460255496354
50     0.06846520139114567
51     0.06318604172890484
52     0.05850686694643862
53     0.05440275857283308
54     0.05083267331271065
55     0.04775009156419277
56     0.045113020120012136
57     0.04288441988003665
58     0.04103223220376689
59     0.03952931446396736
60     0.03835332683167748
61     0.03748660122359935
62     0.036916014663044935
63     0.0366328826046249
