#Bead    Energy (eV)
0     0.04189628391620653
1     0.041907323373906694
2     0.041929874833646186
3     0.04196490662795677
4     0.042013930500640485
5     0.04207907590391665
6     0.0421631944669496
7     0.04226999938569372
8     0.042404245773605555
9     0.0425719592932915
10     0.04278072156317679
11     0.04304002172688188
12     0.043361683899869934
13     0.043760379522009445
14     0.044254231279711474
15     0.04486551025609772
16     0.04562141898567497
17     0.046554938340937276
18     0.04770569337409733
19     0.04912075962732308
20     0.050855284001361786
21     0.05297273027084682
22     0.05554447723937128
23     0.058648398825604894
24     0.06236594737626685
25     0.06677716146015887
26     0.07195295990127763
27     0.07794411878050164
28     0.08476653742079225
29     0.09238274814335581
30     0.10066753374473396
31     0.10936803997834117
32     0.11809986654555682
33     0.12634236316194136
34     0.13351985713168565
35     0.13929733176772335
36     0.1434444768861111
37     0.1457554940480348
38     0.14606420354961566
39     0.1444096914945241
40     0.14116124134723615
41     0.13674474011543822
42     0.13137456932122168
43     0.12508481225274135
44     0.11795725554866583
45     0.11028683929066119
46     0.10245610451117247
47     0.09476820472488676
48     0.08744670777316393
49     0.0806268401705663
50     0.07437334134526351
51     0.06871710581760616
52     0.06366406002466193
53     0.05920177671828256
54     0.05530507394288428
55     0.051936577127561674
56     0.049052692833963164
57     0.04661406779662805
58     0.04458642246150086
59     0.042940588399494994
60     0.0416524650318594
61     0.04070293526055379
62     0.040077768962522985
63     0.039767534892597864
