#Bead    Energy (eV)
0     0.041891224895152124
1     0.04190215022291224
2     0.04192446807319051
3     0.04195913580959552
4     0.04200764803681465
5     0.042072110043344456
6     0.04215534107889665
7     0.042261012173715085
8     0.04239382448928322
9     0.04255973546709604
10     0.0427662412198763
11     0.043022724518458476
12     0.043340878087975335
13     0.04373521230249169
14     0.044223654104929004
15     0.04482823913557161
16     0.045575890313696486
17     0.046499261719503235
18     0.04763760430842543
19     0.04903757703204434
20     0.050753880341968996
21     0.0528495260272313
22     0.055395476276634895
23     0.058469287047334374
24     0.06215228318792485
25     0.06652469191286386
26     0.07165809877539783
27     0.07760461884618047
28     0.08438237369401985
29     0.09195726049081913
30     0.10021013154665162
31     0.10889518083347778
32     0.11763545419189651
33     0.12591793095263132
34     0.1331622089358044
35     0.13902076907170102
36     0.14326161120353967
37     0.14567837981409174
38     0.14610134850232134
39     0.14454966388617393
40     0.1413819375612364
41     0.13702572825631126
42     0.13171398185015334
43     0.12548199997311907
44     0.11840586490122801
45     0.11076533083818534
46     0.10294513264516854
47     0.09525264316343797
48     0.08791561405555194
49     0.08107464986400466
50     0.07479706653686623
51     0.06911535169353057
52     0.06403667384609679
53     0.05954953811223001
54     0.05562949493948561
55     0.05224031502480873
56     0.049338559994586244
57     0.046884716451280756
58     0.04484434955812766
59     0.0431881482461641
60     0.04189188734447817
61     0.04093634685911633
62     0.04030721785234237
63     0.03999501583580433
