#Bead    Energy (eV)
0     0.04231656490895323
1     0.042336762809028004
2     0.042378052489083634
3     0.04244226282974432
4     0.04253224752178663
5     0.04265202434489661
6     0.04280696967870729
7     0.043004075794746584
8     0.04325228010880712
9     0.04356287677386368
10     0.043950021422365024
11     0.04443133893036542
12     0.04502864103573455
13     0.045768754124141775
14     0.04668444573323813
15     0.04781541866745719
16     0.0492093110013863
17     0.05092259468680595
18     0.053021199003867106
19     0.05558059198280212
20     0.058684927809034136
21     0.062424709599573434
22     0.06689222673835961
23     0.07217375562692263
24     0.07833652660707639
25     0.08540865785574313
26     0.09335220387387985
27     0.10201730975668992
28     0.11109913352878645
29     0.12013349855733638
30     0.1284951788762275
31     0.13557801392595056
32     0.14104888250592384
33     0.14465041760882258
34     0.14615608500327512
35     0.14543811843260246
36     0.14274974602637228
37     0.13857232305696274
38     0.1332896579869666
39     0.12696565416953873
40     0.11965224688183355
41     0.11159703925342612
42     0.10323691680820642
43     0.09493451406059365
44     0.08696145860175497
45     0.0794837096161297
46     0.0725831489889727
47     0.06630202198059178
48     0.06065263498151688
49     0.05562477796892386
50     0.051185157477042054
51     0.047280296617014515
52     0.04385865202849526
53     0.04087345769019551
54     0.03828279806280522
55     0.036049534030144555
56     0.03414113637536859
57     0.03252946567892822
58     0.031190537988946682
59     0.03010429411312098
60     0.029254382228693622
61     0.028627966864195404
62     0.028215569980439743
63     0.028010930217530393
