#Bead    Energy (eV)
0     0.04371373853924163
1     0.04377279682441858
2     0.043879440899471794
3     0.04403866981965937
4     0.044257913475114395
5     0.04454746472268966
6     0.044920952995220455
7     0.045396038507791545
8     0.04599521819759
9     0.04674671691079392
10     0.04768535494532812
11     0.04885365412601556
12     0.050302891004951604
13     0.0520938643658403
14     0.05429674872306641
15     0.05699012466246713
16     0.06025926559406508
17     0.06419186949563181
18     0.06887030575536993
19     0.07435995273343649
20     0.08069519692535944
21     0.08786317188330431
22     0.09578305995093409
23     0.10426424462585888
24     0.11299201995525958
25     0.12153034115023935
26     0.1293276999083341
27     0.13591030997143946
28     0.1410287785347692
29     0.1444829668230005
30     0.14609038340530406
31     0.14572913793329656
32     0.14355547696383517
33     0.1399531080024541
34     0.1352948085878865
35     0.12968556019599656
36     0.12314313621155477
37     0.11576558764683059
38     0.10789191818215327
39     0.09988032370245704
40     0.09201439807054475
41     0.0845022184881069
42     0.07745968861051876
43     0.07094874882391104
44     0.06500061370561551
45     0.05962302621834198
46     0.05480580219755224
47     0.05051658601487003
48     0.046707214814439374
49     0.04333178293410624
50     0.04034827448886562
51     0.03771853964990129
52     0.03540804513061452
53     0.03338583491221042
54     0.03162453234588845
55     0.03010017935527278
56     0.02879190936785377
57     0.02768178681578717
58     0.026754607301713192
59     0.025997602311532565
60     0.02540027513953168
61     0.024954285786171548
62     0.024653374813461255
63     0.024493207033670958
