#Bead    Energy (eV)
0     0.051333281550313324
1     0.051499955363093194
2     0.051787702801461534
3     0.05220471847265196
4     0.05276264096835856
5     0.05347695267256018
6     0.054367115787132526
7     0.05545700008187273
8     0.056775165282265054
9     0.058354886287776145
10     0.06023362065221712
11     0.062452781722932574
12     0.06505701961104628
13     0.06809264091395671
14     0.07160406414417671
15     0.07562951547991927
16     0.08019737641838721
17     0.08532038822774221
18     0.09098773418659739
19     0.09715237865488138
20     0.10371597163132877
21     0.11052804005173529
22     0.11738106248638033
23     0.1240066006705141
24     0.13008807261644603
25     0.13538982434441077
26     0.139767993126606
27     0.14309758170155162
28     0.14526382118016282
29     0.14616792382361748
30     0.14575465987594782
31     0.14413181711542095
32     0.14151405820966442
33     0.13813067235048104
34     0.13413572504103535
35     0.12955438571344982
36     0.1244162877763492
37     0.11877684652986194
38     0.11279846496260197
39     0.1066866776803444
40     0.10060940613794503
41     0.09469791062653166
42     0.08905000055179445
43     0.08372749303913941
44     0.07875826477205652
45     0.07415552767970494
46     0.06992240147222695
47     0.06605444437714549
48     0.06254032872231992
49     0.059364435455593445
50     0.05650899726526013
51     0.05395415336101867
52     0.05167714735152695
53     0.0496564217914778
54     0.04787270349170621
55     0.04630900807777758
56     0.04495029412599795
57     0.04378339397788243
58     0.04279697429359291
59     0.04198142628989
60     0.04132874264268565
61     0.040832455591959964
62     0.040487635357711445
63     0.04029066344696545
