#Bead    Energy (eV)
0     0.04190876747135735
1     0.041920088735621
2     0.041943217025232134
3     0.04197914777236345
4     0.04202943506348141
5     0.04209626804577452
6     0.042182578335365276
7     0.04229218328173832
8     0.04242997125007986
9     0.04260213637113936
10     0.042816471371944796
11     0.043082727954943625
12     0.04341305443480354
13     0.043822519501103704
14     0.04432972835209367
15     0.044957532034339456
16     0.045733821233028264
17     0.04669238013137153
18     0.047873751936101466
19     0.04932603243803338
20     0.05110545851090071
21     0.05327659204811242
22     0.05591181521247091
23     0.0590897520367581
24     0.06289212264850834
25     0.06739843856334064
26     0.07267789561525202
27     0.07877787235149848
28     0.0857086797050146
29     0.09342430739487176
30     0.10178420744905577
31     0.11051833059526216
32     0.1192239427806562
33     0.1273618332715952
34     0.13437377223014874
35     0.13995103252868624
36     0.14386709698492647
37     0.145917665844633
38     0.14594715691396856
39     0.14404607219397567
40     0.14060543682144333
41     0.13604330582703347
42     0.13052953060728245
43     0.12409818744487276
44     0.11684840942211118
45     0.10910976155449764
46     0.10125730444371918
47     0.09358389415207309
48     0.08630254488334099
49     0.07953552513717896
50     0.07334184018464693
51     0.0677485510987431
52     0.06275860485172198
53     0.05835734554993165
54     0.054517670666586734
55     0.05119944398030612
56     0.04835898622438526
57     0.045957336956464756
58     0.04396059672344129
59     0.042339945743186995
60     0.04107158766257789
61     0.040136656452036026
62     0.039521114202071
63     0.039215659474268603
