#Bead    Energy (eV)
0     0.0664002017488833
1     0.06667365593451077
2     0.06713695988020449
3     0.067796836613134
4     0.06866237205023622
5     0.06974516641578213
6     0.07105889989080325
7     0.07261928732543141
8     0.07444371611586816
9     0.07655047817475837
10     0.07895728260094416
11     0.08168057099484198
12     0.08473451999776835
13     0.08812944707942322
14     0.09186839129225591
15     0.09594214806092592
16     0.10032690227836429
17     0.10498255406688793
18     0.1098483232060156
19     0.11483878775895508
20     0.11984423882995195
21     0.12473074060960117
22     0.12934285866875134
23     0.13355751682838457
24     0.13728858183497364
25     0.14045734977473875
26     0.14299335108782182
27     0.14482932783769725
28     0.1459060307534103
29     0.1461792955843088
30     0.14563969678111466
31     0.1443661433411809
32     0.1424681582326872
33     0.1400627264874011
34     0.1372639231049528
35     0.13412314641315637
36     0.13065684232605987
37     0.12688922552029253
38     0.12285209286630051
39     0.11859195676558423
40     0.11420121555320153
41     0.10977446753411108
42     0.10539040288983371
43     0.10111213382221786
44     0.09698737769505618
45     0.09305199775204236
46     0.08933203292791317
47     0.08584340092115128
48     0.08259161577465039
49     0.07957772981052592
50     0.07680039166659965
51     0.0742562926126846
52     0.07194009948668192
53     0.06984509215414765
54     0.0679640798031597
55     0.0662898936478203
56     0.06481532387567544
57     0.06353338989102478
58     0.06243760826185266
59     0.06152211383217668
60     0.060781716178440644
61     0.06021200342435023
62     0.05980949590339288
63     0.05957143220707113
