1
# CELL(abcABC):    1.00000     1.00000     1.00000    90.00000    90.00000    90.00000  Step:           0  Bead:       0 positions{atomic_unit}  cell{atomic_unit}
       H  0.00000e+00  0.00000e+00  0.00000e+00
1
# CELL(abcABC):    1.00000     1.00000     1.00055    90.00000    90.00000    90.00000  Step:           1  Bead:       0 positions{atomic_unit}  cell{atomic_unit}
       H -1.23954e-02  3.73190e-03  1.18211e-02
1
# CELL(abcABC):    1.00000     1.00000     1.00033    90.00000    90.00000    90.00000  Step:           2  Bead:       0 positions{atomic_unit}  cell{atomic_unit}
       H -2.53219e-02  6.68201e-03  2.11190e-02
1
# CELL(abcABC):    1.00000     1.00000     1.00189    90.00000    90.00000    90.00000  Step:           3  Bead:       0 positions{atomic_unit}  cell{atomic_unit}
       H -3.97453e-02  1.22218e-02  3.19079e-02
1
# CELL(abcABC):    1.00000     1.00000     1.00465    90.00000    90.00000    90.00000  Step:           4  Bead:       0 positions{atomic_unit}  cell{atomic_unit}
       H -5.67376e-02  1.52147e-02  4.31047e-02
1
# CELL(abcABC):    1.00000     1.00000     1.00796    90.00000    90.00000    90.00000  Step:           5  Bead:       0 positions{atomic_unit}  cell{atomic_unit}
       H -7.44954e-02  2.13718e-02  5.44099e-02
1
# CELL(abcABC):    1.00000     1.00000     1.01339    90.00000    90.00000    90.00000  Step:           6  Bead:       0 positions{atomic_unit}  cell{atomic_unit}
       H -9.27350e-02  2.76919e-02  6.67734e-02
1
# CELL(abcABC):    1.00000     1.00000     1.01830    90.00000    90.00000    90.00000  Step:           7  Bead:       0 positions{atomic_unit}  cell{atomic_unit}
       H -1.11467e-01  3.56439e-02  7.93253e-02
1
# CELL(abcABC):    1.00000     1.00000     1.02401    90.00000    90.00000    90.00000  Step:           8  Bead:       0 positions{atomic_unit}  cell{atomic_unit}
       H -1.26310e-01  4.50323e-02  9.17634e-02
1
# CELL(abcABC):    1.00000     1.00000     1.02762    90.00000    90.00000    90.00000  Step:           9  Bead:       0 positions{atomic_unit}  cell{atomic_unit}
       H -1.39791e-01  5.67119e-02  1.02494e-01
1
# CELL(abcABC):    1.00000     1.00000     1.02933    90.00000    90.00000    90.00000  Step:          10  Bead:       0 positions{atomic_unit}  cell{atomic_unit}
       H -1.53890e-01  6.81714e-02  1.11471e-01
1
# CELL(abcABC):    1.00000     1.00000     1.03097    90.00000    90.00000    90.00000  Step:          11  Bead:       0 positions{atomic_unit}  cell{atomic_unit}
       H -1.69392e-01  7.99430e-02  1.21516e-01
1
# CELL(abcABC):    1.00000     1.00000     1.03243    90.00000    90.00000    90.00000  Step:          12  Bead:       0 positions{atomic_unit}  cell{atomic_unit}
       H -1.85314e-01  9.16244e-02  1.31110e-01
1
# CELL(abcABC):    1.00000     1.00000     1.03660    90.00000    90.00000    90.00000  Step:          13  Bead:       0 positions{atomic_unit}  cell{atomic_unit}
       H -2.00821e-01  1.03813e-01  1.42681e-01
1
# CELL(abcABC):    1.00000     1.00000     1.04018    90.00000    90.00000    90.00000  Step:          14  Bead:       0 positions{atomic_unit}  cell{atomic_unit}
       H -2.15978e-01  1.14805e-01  1.55045e-01
1
# CELL(abcABC):    1.00000     1.00000     1.04408    90.00000    90.00000    90.00000  Step:          15  Bead:       0 positions{atomic_unit}  cell{atomic_unit}
       H -2.31402e-01  1.25630e-01  1.66087e-01
1
# CELL(abcABC):    1.00000     1.00000     1.04946    90.00000    90.00000    90.00000  Step:          16  Bead:       0 positions{atomic_unit}  cell{atomic_unit}
       H -2.47136e-01  1.36392e-01  1.75751e-01
1
# CELL(abcABC):    1.00000     1.00000     1.05432    90.00000    90.00000    90.00000  Step:          17  Bead:       0 positions{atomic_unit}  cell{atomic_unit}
       H -2.62168e-01  1.48734e-01  1.84891e-01
1
# CELL(abcABC):    1.00000     1.00000     1.05644    90.00000    90.00000    90.00000  Step:          18  Bead:       0 positions{atomic_unit}  cell{atomic_unit}
       H -2.79348e-01  1.60708e-01  1.90917e-01
1
# CELL(abcABC):    1.00000     1.00000     1.05926    90.00000    90.00000    90.00000  Step:          19  Bead:       0 positions{atomic_unit}  cell{atomic_unit}
       H -2.94565e-01  1.74537e-01  1.96377e-01
1
# CELL(abcABC):    1.00000     1.00000     1.06684    90.00000    90.00000    90.00000  Step:          20  Bead:       0 positions{atomic_unit}  cell{atomic_unit}
       H -3.09959e-01  1.88759e-01  2.02998e-01
1
# CELL(abcABC):    1.00000     1.00000     1.07436    90.00000    90.00000    90.00000  Step:          21  Bead:       0 positions{atomic_unit}  cell{atomic_unit}
       H -3.24600e-01  2.02845e-01  2.13374e-01
1
# CELL(abcABC):    1.00000     1.00000     1.08100    90.00000    90.00000    90.00000  Step:          22  Bead:       0 positions{atomic_unit}  cell{atomic_unit}
       H -3.39171e-01  2.18692e-01  2.25200e-01
1
# CELL(abcABC):    1.00000     1.00000     1.08836    90.00000    90.00000    90.00000  Step:          23  Bead:       0 positions{atomic_unit}  cell{atomic_unit}
       H -3.53405e-01  2.33509e-01  2.38103e-01
1
# CELL(abcABC):    1.00000     1.00000     1.09727    90.00000    90.00000    90.00000  Step:          24  Bead:       0 positions{atomic_unit}  cell{atomic_unit}
       H -3.67217e-01  2.48977e-01  2.53798e-01
1
# CELL(abcABC):    1.00000     1.00000     1.10410    90.00000    90.00000    90.00000  Step:          25  Bead:       0 positions{atomic_unit}  cell{atomic_unit}
       H -3.79014e-01  2.63432e-01  2.68921e-01
1
# CELL(abcABC):    1.00000     1.00000     1.11029    90.00000    90.00000    90.00000  Step:          26  Bead:       0 positions{atomic_unit}  cell{atomic_unit}
       H -3.93850e-01  2.76921e-01  2.85591e-01
1
# CELL(abcABC):    1.00000     1.00000     1.11769    90.00000    90.00000    90.00000  Step:          27  Bead:       0 positions{atomic_unit}  cell{atomic_unit}
       H -4.07435e-01  2.89828e-01  3.01994e-01
1
# CELL(abcABC):    1.00000     1.00000     1.12642    90.00000    90.00000    90.00000  Step:          28  Bead:       0 positions{atomic_unit}  cell{atomic_unit}
       H -4.19348e-01  3.00293e-01  3.20988e-01
1
# CELL(abcABC):    1.00000     1.00000     1.13828    90.00000    90.00000    90.00000  Step:          29  Bead:       0 positions{atomic_unit}  cell{atomic_unit}
       H -4.29113e-01  3.13093e-01  3.38929e-01
1
# CELL(abcABC):    1.00000     1.00000     1.15385    90.00000    90.00000    90.00000  Step:          30  Bead:       0 positions{atomic_unit}  cell{atomic_unit}
       H -4.38711e-01  3.27138e-01  3.58611e-01
1
# CELL(abcABC):    1.00000     1.00000     1.16859    90.00000    90.00000    90.00000  Step:          31  Bead:       0 positions{atomic_unit}  cell{atomic_unit}
       H -4.49035e-01  3.39224e-01  3.77318e-01
1
# CELL(abcABC):    1.00000     1.00000     1.18179    90.00000    90.00000    90.00000  Step:          32  Bead:       0 positions{atomic_unit}  cell{atomic_unit}
       H -4.59573e-01  3.49328e-01  3.95230e-01
1
# CELL(abcABC):    1.00000     1.00000     1.19437    90.00000    90.00000    90.00000  Step:          33  Bead:       0 positions{atomic_unit}  cell{atomic_unit}
       H -4.70480e-01  3.59474e-01  4.14118e-01
1
# CELL(abcABC):    1.00000     1.00000     1.20859    90.00000    90.00000    90.00000  Step:          34  Bead:       0 positions{atomic_unit}  cell{atomic_unit}
       H -4.79568e-01  3.69737e-01  4.35630e-01
1
# CELL(abcABC):    1.00000     1.00000     1.22629    90.00000    90.00000    90.00000  Step:          35  Bead:       0 positions{atomic_unit}  cell{atomic_unit}
       H -4.86901e-01  3.82050e-01  4.55536e-01
1
# CELL(abcABC):    1.00000     1.00000     1.24301    90.00000    90.00000    90.00000  Step:          36  Bead:       0 positions{atomic_unit}  cell{atomic_unit}
       H -4.94771e-01  3.94013e-01  4.74366e-01
1
# CELL(abcABC):    1.00000     1.00000     1.25709    90.00000    90.00000    90.00000  Step:          37  Bead:       0 positions{atomic_unit}  cell{atomic_unit}
       H -5.02725e-01  4.05972e-01  4.89432e-01
1
# CELL(abcABC):    1.00000     1.00000     1.27155    90.00000    90.00000    90.00000  Step:          38  Bead:       0 positions{atomic_unit}  cell{atomic_unit}
       H -5.09812e-01  4.17270e-01  5.03109e-01
1
# CELL(abcABC):    1.00000     1.00000     1.28607    90.00000    90.00000    90.00000  Step:          39  Bead:       0 positions{atomic_unit}  cell{atomic_unit}
       H -5.17203e-01  4.28037e-01  5.15302e-01
1
# CELL(abcABC):    1.00000     1.00000     1.30464    90.00000    90.00000    90.00000  Step:          40  Bead:       0 positions{atomic_unit}  cell{atomic_unit}
       H -5.26454e-01  4.38974e-01  5.31776e-01
1
# CELL(abcABC):    1.00000     1.00000     1.32126    90.00000    90.00000    90.00000  Step:          41  Bead:       0 positions{atomic_unit}  cell{atomic_unit}
       H -5.36144e-01  4.48875e-01  5.47136e-01
1
# CELL(abcABC):    1.00000     1.00000     1.34059    90.00000    90.00000    90.00000  Step:          42  Bead:       0 positions{atomic_unit}  cell{atomic_unit}
       H -5.46767e-01  4.60818e-01  5.62814e-01
1
# CELL(abcABC):    1.00000     1.00000     1.35969    90.00000    90.00000    90.00000  Step:          43  Bead:       0 positions{atomic_unit}  cell{atomic_unit}
       H -5.57957e-01  4.73672e-01  5.76615e-01
1
# CELL(abcABC):    1.00000     1.00000     1.37977    90.00000    90.00000    90.00000  Step:          44  Bead:       0 positions{atomic_unit}  cell{atomic_unit}
       H -5.68630e-01  4.86878e-01  5.89332e-01
1
# CELL(abcABC):    1.00000     1.00000     1.40078    90.00000    90.00000    90.00000  Step:          45  Bead:       0 positions{atomic_unit}  cell{atomic_unit}
       H -5.79345e-01  5.00468e-01  6.03270e-01
1
# CELL(abcABC):    1.00000     1.00000     1.42512    90.00000    90.00000    90.00000  Step:          46  Bead:       0 positions{atomic_unit}  cell{atomic_unit}
       H -5.92173e-01  5.14425e-01  6.17541e-01
1
# CELL(abcABC):    1.00000     1.00000     1.44992    90.00000    90.00000    90.00000  Step:          47  Bead:       0 positions{atomic_unit}  cell{atomic_unit}
       H -6.03697e-01  5.27653e-01  6.30989e-01
1
# CELL(abcABC):    1.00000     1.00000     1.47319    90.00000    90.00000    90.00000  Step:          48  Bead:       0 positions{atomic_unit}  cell{atomic_unit}
       H -6.13844e-01  5.39304e-01  6.46827e-01
1
# CELL(abcABC):    1.00000     1.00000     1.49525    90.00000    90.00000    90.00000  Step:          49  Bead:       0 positions{atomic_unit}  cell{atomic_unit}
       H -6.23324e-01  5.51195e-01  6.62278e-01
1
# CELL(abcABC):    1.00000     1.00000     1.51783    90.00000    90.00000    90.00000  Step:          50  Bead:       0 positions{atomic_unit}  cell{atomic_unit}
       H -6.31869e-01  5.62868e-01  6.79883e-01
1
# CELL(abcABC):    1.00000     1.00000     1.53654    90.00000    90.00000    90.00000  Step:          51  Bead:       0 positions{atomic_unit}  cell{atomic_unit}
       H -6.40561e-01  5.72002e-01  6.97566e-01
1
# CELL(abcABC):    1.00000     1.00000     1.55790    90.00000    90.00000    90.00000  Step:          52  Bead:       0 positions{atomic_unit}  cell{atomic_unit}
       H -6.48181e-01  5.82194e-01  7.17274e-01
1
# CELL(abcABC):    1.00000     1.00000     1.58090    90.00000    90.00000    90.00000  Step:          53  Bead:       0 positions{atomic_unit}  cell{atomic_unit}
       H -6.53524e-01  5.90142e-01  7.38243e-01
1
# CELL(abcABC):    1.00000     1.00000     1.60562    90.00000    90.00000    90.00000  Step:          54  Bead:       0 positions{atomic_unit}  cell{atomic_unit}
       H -6.58441e-01  5.98474e-01  7.58875e-01
1
# CELL(abcABC):    1.00000     1.00000     1.63092    90.00000    90.00000    90.00000  Step:          55  Bead:       0 positions{atomic_unit}  cell{atomic_unit}
       H -6.62289e-01  6.04902e-01  7.79366e-01
1
# CELL(abcABC):    1.00000     1.00000     1.65600    90.00000    90.00000    90.00000  Step:          56  Bead:       0 positions{atomic_unit}  cell{atomic_unit}
       H -6.65287e-01  6.09087e-01  8.00990e-01
1
# CELL(abcABC):    1.00000     1.00000     1.68745    90.00000    90.00000    90.00000  Step:          57  Bead:       0 positions{atomic_unit}  cell{atomic_unit}
       H -6.68417e-01  6.11104e-01  8.26056e-01
1
# CELL(abcABC):    1.00000     1.00000     1.71994    90.00000    90.00000    90.00000  Step:          58  Bead:       0 positions{atomic_unit}  cell{atomic_unit}
       H -6.73594e-01  6.14546e-01  8.50964e-01
1
# CELL(abcABC):    1.00000     1.00000     1.74942    90.00000    90.00000    90.00000  Step:          59  Bead:       0 positions{atomic_unit}  cell{atomic_unit}
       H -6.78816e-01  6.19921e-01  8.74495e-01
1
# CELL(abcABC):    1.00000     1.00000     1.78308    90.00000    90.00000    90.00000  Step:          60  Bead:       0 positions{atomic_unit}  cell{atomic_unit}
       H -6.83841e-01  6.23641e-01  9.00371e-01
1
# CELL(abcABC):    1.00000     1.00000     1.81963    90.00000    90.00000    90.00000  Step:          61  Bead:       0 positions{atomic_unit}  cell{atomic_unit}
       H -6.88135e-01  6.26001e-01  9.26899e-01
1
# CELL(abcABC):    1.00000     1.00000     1.85215    90.00000    90.00000    90.00000  Step:          62  Bead:       0 positions{atomic_unit}  cell{atomic_unit}
       H -6.88752e-01  6.29182e-01  9.51551e-01
1
# CELL(abcABC):    1.00000     1.00000     1.88749    90.00000    90.00000    90.00000  Step:          63  Bead:       0 positions{atomic_unit}  cell{atomic_unit}
       H -6.88199e-01  6.34108e-01  9.80252e-01
1
# CELL(abcABC):    1.00000     1.00000     1.92247    90.00000    90.00000    90.00000  Step:          64  Bead:       0 positions{atomic_unit}  cell{atomic_unit}
       H -6.90157e-01  6.41667e-01  1.00783e+00
1
# CELL(abcABC):    1.00000     1.00000     1.95788    90.00000    90.00000    90.00000  Step:          65  Bead:       0 positions{atomic_unit}  cell{atomic_unit}
       H -6.90980e-01  6.47498e-01  1.03492e+00
1
# CELL(abcABC):    1.00000     1.00000     1.99820    90.00000    90.00000    90.00000  Step:          66  Bead:       0 positions{atomic_unit}  cell{atomic_unit}
       H -6.90039e-01  6.56169e-01  1.06271e+00
1
# CELL(abcABC):    1.00000     1.00000     2.03570    90.00000    90.00000    90.00000  Step:          67  Bead:       0 positions{atomic_unit}  cell{atomic_unit}
       H -6.90681e-01  6.65825e-01  1.08719e+00
1
# CELL(abcABC):    1.00000     1.00000     2.07240    90.00000    90.00000    90.00000  Step:          68  Bead:       0 positions{atomic_unit}  cell{atomic_unit}
       H -6.91430e-01  6.76359e-01  1.11029e+00
1
# CELL(abcABC):    1.00000     1.00000     2.11162    90.00000    90.00000    90.00000  Step:          69  Bead:       0 positions{atomic_unit}  cell{atomic_unit}
       H -6.90281e-01  6.84244e-01  1.13374e+00
1
# CELL(abcABC):    1.00000     1.00000     2.15737    90.00000    90.00000    90.00000  Step:          70  Bead:       0 positions{atomic_unit}  cell{atomic_unit}
       H -6.87989e-01  6.91506e-01  1.16162e+00
1
# CELL(abcABC):    1.00000     1.00000     2.20517    90.00000    90.00000    90.00000  Step:          71  Bead:       0 positions{atomic_unit}  cell{atomic_unit}
       H -6.85984e-01  6.98543e-01  1.18998e+00
1
# CELL(abcABC):    1.00000     1.00000     2.25039    90.00000    90.00000    90.00000  Step:          72  Bead:       0 positions{atomic_unit}  cell{atomic_unit}
       H -6.84606e-01  7.03643e-01  1.21708e+00
1
# CELL(abcABC):    1.00000     1.00000     2.29464    90.00000    90.00000    90.00000  Step:          73  Bead:       0 positions{atomic_unit}  cell{atomic_unit}
       H -6.80315e-01  7.09781e-01  1.24082e+00
1
# CELL(abcABC):    1.00000     1.00000     2.33930    90.00000    90.00000    90.00000  Step:          74  Bead:       0 positions{atomic_unit}  cell{atomic_unit}
       H -6.75275e-01  7.16319e-01  1.26476e+00
1
# CELL(abcABC):    1.00000     1.00000     2.38560    90.00000    90.00000    90.00000  Step:          75  Bead:       0 positions{atomic_unit}  cell{atomic_unit}
       H -6.71545e-01  7.24412e-01  1.28941e+00
1
# CELL(abcABC):    1.00000     1.00000     2.43382    90.00000    90.00000    90.00000  Step:          76  Bead:       0 positions{atomic_unit}  cell{atomic_unit}
       H -6.65348e-01  7.32219e-01  1.31557e+00
1
# CELL(abcABC):    1.00000     1.00000     2.48341    90.00000    90.00000    90.00000  Step:          77  Bead:       0 positions{atomic_unit}  cell{atomic_unit}
       H -6.56535e-01  7.38671e-01  1.34451e+00
1
# CELL(abcABC):    1.00000     1.00000     2.52871    90.00000    90.00000    90.00000  Step:          78  Bead:       0 positions{atomic_unit}  cell{atomic_unit}
       H -6.46103e-01  7.45677e-01  1.36939e+00
1
# CELL(abcABC):    1.00000     1.00000     2.57435    90.00000    90.00000    90.00000  Step:          79  Bead:       0 positions{atomic_unit}  cell{atomic_unit}
       H -6.37000e-01  7.52861e-01  1.39512e+00
1
# CELL(abcABC):    1.00000     1.00000     2.61912    90.00000    90.00000    90.00000  Step:          80  Bead:       0 positions{atomic_unit}  cell{atomic_unit}
       H -6.29430e-01  7.61895e-01  1.41870e+00
1
# CELL(abcABC):    1.00000     1.00000     2.66444    90.00000    90.00000    90.00000  Step:          81  Bead:       0 positions{atomic_unit}  cell{atomic_unit}
       H -6.20519e-01  7.73729e-01  1.44198e+00
1
# CELL(abcABC):    1.00000     1.00000     2.70359    90.00000    90.00000    90.00000  Step:          82  Bead:       0 positions{atomic_unit}  cell{atomic_unit}
       H -6.11819e-01  7.88380e-01  1.46179e+00
1
# CELL(abcABC):    1.00000     1.00000     2.74269    90.00000    90.00000    90.00000  Step:          83  Bead:       0 positions{atomic_unit}  cell{atomic_unit}
       H -6.02547e-01  7.99261e-01  1.48454e+00
1
# CELL(abcABC):    1.00000     1.00000     2.78218    90.00000    90.00000    90.00000  Step:          84  Bead:       0 positions{atomic_unit}  cell{atomic_unit}
       H -5.90828e-01  8.10597e-01  1.50786e+00
1
# CELL(abcABC):    1.00000     1.00000     2.82168    90.00000    90.00000    90.00000  Step:          85  Bead:       0 positions{atomic_unit}  cell{atomic_unit}
       H -5.80214e-01  8.21195e-01  1.53283e+00
1
# CELL(abcABC):    1.00000     1.00000     2.86911    90.00000    90.00000    90.00000  Step:          86  Bead:       0 positions{atomic_unit}  cell{atomic_unit}
       H -5.70444e-01  8.29971e-01  1.56058e+00
1
# CELL(abcABC):    1.00000     1.00000     2.91380    90.00000    90.00000    90.00000  Step:          87  Bead:       0 positions{atomic_unit}  cell{atomic_unit}
       H -5.57903e-01  8.41270e-01  1.58690e+00
1
# CELL(abcABC):    1.00000     1.00000     2.95248    90.00000    90.00000    90.00000  Step:          88  Bead:       0 positions{atomic_unit}  cell{atomic_unit}
       H -5.44668e-01  8.53408e-01  1.61132e+00
1
# CELL(abcABC):    1.00000     1.00000     2.98879    90.00000    90.00000    90.00000  Step:          89  Bead:       0 positions{atomic_unit}  cell{atomic_unit}
       H -5.32427e-01  8.64857e-01  1.63374e+00
1
# CELL(abcABC):    1.00000     1.00000     3.02499    90.00000    90.00000    90.00000  Step:          90  Bead:       0 positions{atomic_unit}  cell{atomic_unit}
       H -5.21114e-01  8.74991e-01  1.65446e+00
1
# CELL(abcABC):    1.00000     1.00000     3.06005    90.00000    90.00000    90.00000  Step:          91  Bead:       0 positions{atomic_unit}  cell{atomic_unit}
       H -5.10904e-01  8.85612e-01  1.67471e+00
1
# CELL(abcABC):    1.00000     1.00000     3.09314    90.00000    90.00000    90.00000  Step:          92  Bead:       0 positions{atomic_unit}  cell{atomic_unit}
       H -4.97754e-01  8.95257e-01  1.69358e+00
1
# CELL(abcABC):    1.00000     1.00000     3.13867    90.00000    90.00000    90.00000  Step:          93  Bead:       0 positions{atomic_unit}  cell{atomic_unit}
       H -4.84885e-01  9.03780e-01  1.71727e+00
1
# CELL(abcABC):    1.00000     1.00000     3.18094    90.00000    90.00000    90.00000  Step:          94  Bead:       0 positions{atomic_unit}  cell{atomic_unit}
       H -4.72171e-01  9.11920e-01  1.74065e+00
1
# CELL(abcABC):    1.00000     1.00000     3.22561    90.00000    90.00000    90.00000  Step:          95  Bead:       0 positions{atomic_unit}  cell{atomic_unit}
       H -4.58846e-01  9.19682e-01  1.76499e+00
1
# CELL(abcABC):    1.00000     1.00000     3.27179    90.00000    90.00000    90.00000  Step:          96  Bead:       0 positions{atomic_unit}  cell{atomic_unit}
       H -4.43739e-01  9.26864e-01  1.78975e+00
1
# CELL(abcABC):    1.00000     1.00000     3.31924    90.00000    90.00000    90.00000  Step:          97  Bead:       0 positions{atomic_unit}  cell{atomic_unit}
       H -4.29316e-01  9.36066e-01  1.81523e+00
1
# CELL(abcABC):    1.00000     1.00000     3.36531    90.00000    90.00000    90.00000  Step:          98  Bead:       0 positions{atomic_unit}  cell{atomic_unit}
       H -4.12767e-01  9.45535e-01  1.84101e+00
1
# CELL(abcABC):    1.00000     1.00000     3.40932    90.00000    90.00000    90.00000  Step:          99  Bead:       0 positions{atomic_unit}  cell{atomic_unit}
       H -3.96337e-01  9.53913e-01  1.86301e+00
1
# CELL(abcABC):    1.00000     1.00000     3.45138    90.00000    90.00000    90.00000  Step:         100  Bead:       0 positions{atomic_unit}  cell{atomic_unit}
       H -3.80219e-01  9.60030e-01  1.88258e+00
