LAMMPS Atom File

  3 atoms
  2 bonds
  1 angles
    0 dihedrals
    0 impropers

  2 atom types
  1 bond types
  1 angle types

  0.0   40.0  xlo xhi
  0.0   40.0  ylo yhi
  0.0   40.0  zlo zhi

Masses

  1   15.9994
  2   1.00794

Atoms

  1    1  1 -0.8472   12.12456   28.09298   22.27452  0  1  0
  2    1  2  0.4236   12.53683   28.75606   22.89928  0  1  0
  3    1  2  0.4236   11.49482   28.56390   21.65678  0  1  0
Bonds

  1   1      1      2
  2   1      1      3

Angles

  1   1      2      1      3
