7
# CELL(abcABC):   25.29166    25.29166    25.29166    90.00000    90.00000    90.00000  Step:           0  Bead:       0 f_centroid{atomic_unit}  cell{atomic_unit}
       O  1.81782e-03  2.94126e-03 -2.50671e-03
       O -9.85165e-04 -3.13301e-03 -2.76220e-03
       H  1.96107e-03  2.46574e-03  5.79977e-03
       H -1.56524e-04  3.14017e-05  1.02516e-03
       H -2.23501e-03  5.02979e-03 -3.90609e-03
       H -3.66372e-03 -2.09913e-03  5.06836e-03
       H  3.26160e-03 -5.23500e-03 -2.71833e-03
7
# CELL(abcABC):   25.29166    25.29166    25.29166    90.00000    90.00000    90.00000  Step:           1  Bead:       0 f_centroid{atomic_unit}  cell{atomic_unit}
       O  7.03826e-03 -4.62491e-04  1.42535e-03
       O -7.14188e-03  4.84502e-04 -8.38946e-04
       H -3.91478e-04  6.17518e-05 -6.47262e-04
       H -9.33696e-05  1.81046e-05  6.20194e-04
       H  3.08978e-04 -5.90673e-04  4.19803e-05
       H  5.76109e-04 -8.98424e-05 -4.96750e-04
       H -2.98074e-04  5.79432e-04 -1.03874e-04
7
# CELL(abcABC):   25.29166    25.29166    25.29166    90.00000    90.00000    90.00000  Step:           2  Bead:       0 f_centroid{atomic_unit}  cell{atomic_unit}
       O  1.08940e-04  6.10896e-05 -3.07674e-04
       O -1.82112e-05 -9.44894e-05 -3.25471e-04
       H  9.57640e-04 -5.21078e-04  4.05123e-05
       H  5.31244e-05 -1.23279e-05 -3.07118e-04
       H -9.45609e-04 -2.82003e-04  4.73845e-04
       H -9.10744e-04  5.20564e-04 -2.92076e-04
       H  7.54649e-04  3.25748e-04  7.17802e-04
7
# CELL(abcABC):   25.29166    25.29166    25.29166    90.00000    90.00000    90.00000  Step:           3  Bead:       0 f_centroid{atomic_unit}  cell{atomic_unit}
       O -8.39037e-05  1.16728e-03  1.81606e-03
       O -4.57197e-04 -1.00569e-03  1.75156e-03
       H -1.64033e-04 -5.71457e-04 -1.34467e-03
       H  5.48923e-05 -1.50564e-05 -3.32207e-04
       H -8.13624e-04  6.65470e-04 -4.88889e-04
       H  5.33542e-04  4.71964e-04 -1.21678e-03
       H  9.32063e-04 -7.14668e-04 -1.88415e-04
7
# CELL(abcABC):   25.29166    25.29166    25.29166    90.00000    90.00000    90.00000  Step:           4  Bead:       0 f_centroid{atomic_unit}  cell{atomic_unit}
       O -9.38030e-05 -4.08326e-04  1.88562e-04
       O  4.20954e-05  4.12882e-04  1.81169e-04
       H  4.85102e-05  5.83512e-05 -6.87422e-05
       H  1.01153e-05 -3.74172e-06 -6.59213e-05
       H -1.49262e-04 -1.73266e-04 -1.00178e-04
       H -2.75193e-05 -6.26471e-05 -7.40542e-05
       H  1.68747e-04  1.74565e-04 -5.82119e-05
7
# CELL(abcABC):   25.29166    25.29166    25.29166    90.00000    90.00000    90.00000  Step:           5  Bead:       0 f_centroid{atomic_unit}  cell{atomic_unit}
       O -5.21204e-04  1.47007e-04 -5.19719e-05
       O  4.56370e-04 -1.07626e-04  1.16677e-04
       H  1.40493e-04  2.28546e-04  3.87752e-04
       H -1.23052e-05  2.28368e-06  8.28791e-05
       H -3.33057e-04  4.33953e-04 -4.95004e-04
       H -2.28331e-04 -1.98094e-04  3.14159e-04
       H  4.99730e-04 -5.07077e-04 -3.56920e-04
7
# CELL(abcABC):   25.29166    25.29166    25.29166    90.00000    90.00000    90.00000  Step:           6  Bead:       0 f_centroid{atomic_unit}  cell{atomic_unit}
       O  4.18649e-04 -1.49355e-04  2.21831e-06
       O -4.00659e-04  1.36315e-04 -1.24923e-04
       H -9.35572e-05  1.65410e-04  1.38988e-04
       H -4.37652e-05  9.47296e-06  2.68066e-04
       H -3.48734e-06  7.03125e-05 -2.34769e-04
       H  4.78678e-05 -1.53577e-04  1.64810e-04
       H  7.25663e-05 -7.86017e-05 -2.16009e-04
7
# CELL(abcABC):   25.29166    25.29166    25.29166    90.00000    90.00000    90.00000  Step:           7  Bead:       0 f_centroid{atomic_unit}  cell{atomic_unit}
       O  2.04594e-05  1.55129e-04  1.68994e-04
       O -2.06256e-05 -1.33846e-04  1.20987e-04
       H -8.17039e-05 -8.23462e-05 -1.70289e-04
       H -2.25867e-05  3.40350e-06  1.24766e-04
       H -7.16440e-05  8.64333e-05 -9.01309e-05
       H  8.69619e-05  5.84066e-05 -9.48887e-05
       H  9.03142e-05 -8.55806e-05 -5.70694e-05
7
# CELL(abcABC):   25.29166    25.29166    25.29166    90.00000    90.00000    90.00000  Step:           8  Bead:       0 f_centroid{atomic_unit}  cell{atomic_unit}
       O -1.04336e-05 -1.70530e-05 -5.95904e-05
       O  3.60203e-05  3.93925e-06 -4.91369e-05
       H -4.15952e-06 -3.63173e-05 -4.88996e-06
       H -2.03102e-05  5.87761e-06  1.20340e-04
       H -1.89132e-05 -2.94463e-05 -5.98845e-06
       H  1.72236e-06  3.34325e-05 -2.72848e-06
       H  1.54444e-05  3.65944e-05  2.03215e-06
7
# CELL(abcABC):   25.29166    25.29166    25.29166    90.00000    90.00000    90.00000  Step:           9  Bead:       0 f_centroid{atomic_unit}  cell{atomic_unit}
       O -2.82142e-05  2.73332e-05 -1.27898e-07
       O -5.37810e-05  1.10319e-05  2.87287e-05
       H  2.40760e-05 -1.54827e-05  2.07876e-05
       H -2.00799e-06 -4.83169e-08  8.05471e-06
       H  3.44343e-05 -5.29511e-05  6.25562e-06
       H  1.91960e-05  3.01355e-05 -3.67777e-05
       H  4.92832e-06  1.56177e-06 -2.35403e-05
7
# CELL(abcABC):   25.29166    25.29166    25.29166    90.00000    90.00000    90.00000  Step:          10  Bead:       0 f_centroid{atomic_unit}  cell{atomic_unit}
       O -2.14015e-06  4.86153e-06  9.82965e-06
       O  2.12552e-05 -1.40830e-05  6.37357e-06
       H  1.70019e-05 -1.58664e-05  8.07603e-06
       H -1.19087e-06 -2.34053e-06 -4.28173e-06
       H  1.42421e-05 -1.11683e-05 -1.87384e-05
       H -3.28299e-05  1.23194e-05  1.62160e-05
       H -1.67674e-05  2.51518e-05 -1.81856e-05
7
# CELL(abcABC):   25.29166    25.29166    25.29166    90.00000    90.00000    90.00000  Step:          11  Bead:       0 f_centroid{atomic_unit}  cell{atomic_unit}
       O  1.35785e-04  3.74740e-05  1.33106e-04
       O -1.18641e-04 -6.06150e-05  8.15731e-05
       H -5.70765e-05 -1.88052e-05 -7.41991e-05
       H -5.08749e-07  2.08473e-06  9.26974e-06
       H  1.10987e-05  3.58384e-05 -6.62638e-05
       H  4.62322e-05  8.72262e-06 -2.63753e-05
       H -1.75774e-05 -4.67821e-06 -5.54380e-05
7
# CELL(abcABC):   25.29166    25.29166    25.29166    90.00000    90.00000    90.00000  Step:          12  Bead:       0 f_centroid{atomic_unit}  cell{atomic_unit}
       O  8.00767e-05 -3.71557e-05 -4.36458e-05
       O -8.38156e-05  3.69965e-05 -7.47320e-05
       H -9.89218e-06  5.17559e-05  1.04403e-04
       H -2.86917e-06  6.25420e-06  3.80140e-05
       H  3.40265e-05 -4.09699e-06 -4.99227e-05
       H -1.41682e-05 -3.87118e-05  9.51530e-05
       H -4.60574e-06 -1.76541e-05 -6.83897e-05
7
# CELL(abcABC):   25.29166    25.29166    25.29166    90.00000    90.00000    90.00000  Step:          13  Bead:       0 f_centroid{atomic_unit}  cell{atomic_unit}
       O -1.05686e-04  8.57824e-05  5.85771e-06
       O  5.96771e-05 -8.91234e-05  5.04059e-05
       H -1.26633e-05  2.46700e-05  7.25308e-05
       H  3.30687e-06  1.04933e-05  1.57542e-05
       H -5.37781e-05  1.04879e-04 -1.03505e-04
       H  1.53250e-05 -5.84635e-06  4.78849e-05
       H  9.48631e-05 -1.27679e-04 -8.63295e-05
7
# CELL(abcABC):   25.29166    25.29166    25.29166    90.00000    90.00000    90.00000  Step:          14  Bead:       0 f_centroid{atomic_unit}  cell{atomic_unit}
       O -1.38996e-05 -3.54802e-05  8.72973e-06
       O  1.87867e-05  2.03713e-05 -5.20970e-06
       H -4.42824e-05 -1.05132e-05 -4.34000e-06
       H  5.66587e-06  6.31815e-06  1.25709e-05
       H -1.61677e-05 -1.64903e-05 -1.29617e-05
       H  3.88354e-05  1.54529e-05  1.52468e-05
       H  1.35230e-05  2.04480e-05 -1.37518e-05
7
# CELL(abcABC):   25.29166    25.29166    25.29166    90.00000    90.00000    90.00000  Step:          15  Bead:       0 f_centroid{atomic_unit}  cell{atomic_unit}
       O -3.79089e-05  3.22188e-05 -6.82121e-07
       O -7.58789e-05  9.39480e-06  4.99838e-05
       H  6.05098e-06 -1.70886e-05  3.42354e-05
       H  1.17112e-05 -7.64260e-06 -5.15840e-05
       H -3.00417e-06 -3.85683e-05  1.43970e-05
       H  6.13610e-05  3.90997e-05 -4.51990e-05
       H  3.69226e-05 -1.97531e-05 -3.30260e-06
7
# CELL(abcABC):   25.29166    25.29166    25.29166    90.00000    90.00000    90.00000  Step:          16  Bead:       0 f_centroid{atomic_unit}  cell{atomic_unit}
       O  8.70983e-06  4.50484e-07 -5.62466e-06
       O  1.78545e-05  1.10575e-05 -2.21732e-05
       H  5.18128e-06 -2.22201e-05  2.53578e-05
       H  8.81641e-06 -1.14468e-05 -6.17092e-05
       H -2.11372e-05 -1.78147e-05  6.12204e-06
       H -2.24759e-05  1.52511e-05  3.92703e-05
       H  4.26041e-06  2.29704e-05  1.64505e-05
7
# CELL(abcABC):   25.29166    25.29166    25.29166    90.00000    90.00000    90.00000  Step:          17  Bead:       0 f_centroid{atomic_unit}  cell{atomic_unit}
       O  7.56572e-05  3.51733e-05  6.87621e-05
       O  9.33653e-07 -1.06331e-04  7.83444e-05
       H -3.49104e-05 -4.15781e-05 -4.55501e-05
       H  4.26041e-06 -4.98375e-06 -5.12159e-05
       H -6.25661e-05  8.19412e-05 -5.61371e-05
       H  1.20437e-05  2.70248e-05 -5.31344e-06
       H  4.14246e-06  9.92060e-06  7.85576e-06
7
# CELL(abcABC):   25.29166    25.29166    25.29166    90.00000    90.00000    90.00000  Step:          18  Bead:       0 f_centroid{atomic_unit}  cell{atomic_unit}
       O  9.84855e-05  1.74097e-05 -5.51069e-05
       O -9.44823e-05  7.05853e-06 -7.59272e-05
       H -2.04182e-05 -1.04080e-05  4.51564e-05
       H -1.30640e-05  1.45604e-05  2.82284e-05
       H  7.86287e-06 -1.14497e-05  3.17897e-06
       H -4.83169e-08 -9.97602e-07  5.02411e-05
       H  2.04480e-05 -1.41853e-05  3.06528e-06
7
# CELL(abcABC):   25.29166    25.29166    25.29166    90.00000    90.00000    90.00000  Step:          19  Bead:       0 f_centroid{atomic_unit}  cell{atomic_unit}
       O -4.88924e-05  1.09944e-04 -5.50671e-05
       O  2.36625e-05 -1.15928e-04  2.78362e-05
       H -1.47651e-05 -1.81970e-05  4.38618e-05
       H -1.78872e-05  2.74952e-05  3.75834e-05
       H -4.46562e-05  8.48345e-05 -4.76192e-05
       H  1.58067e-05  1.75888e-05  7.17790e-06
       H  8.66365e-05 -1.07360e-04 -1.63851e-05
7
# CELL(abcABC):   25.29166    25.29166    25.29166    90.00000    90.00000    90.00000  Step:          20  Bead:       0 f_centroid{atomic_unit}  cell{atomic_unit}
       O  1.70118e-05  4.66116e-07 -6.74518e-05
       O  3.69724e-05 -2.53380e-06 -5.45427e-05
       H -3.84944e-05 -3.60075e-05 -1.09267e-05
       H -2.35261e-05  2.64819e-05  4.72809e-05
       H  1.09068e-05 -2.34209e-05  3.24079e-05
       H -9.83391e-07  1.56007e-05  1.64590e-05
       H -1.35429e-06  2.07407e-05  3.58412e-05
7
# CELL(abcABC):   25.29166    25.29166    25.29166    90.00000    90.00000    90.00000  Step:          21  Bead:       0 f_centroid{atomic_unit}  cell{atomic_unit}
       O  9.72875e-06  5.12472e-05  2.12253e-05
       O -2.72067e-05 -5.47985e-05  6.88630e-05
       H -5.36460e-05 -4.44331e-05 -6.45940e-05
       H -1.51545e-05  2.03798e-05  1.47310e-05
       H  1.10887e-05  5.29639e-06  1.06951e-05
       H  6.88829e-05  3.38972e-05 -6.81283e-05
       H  4.07709e-06 -1.16231e-05  1.58678e-05
7
# CELL(abcABC):   25.29166    25.29166    25.29166    90.00000    90.00000    90.00000  Step:          22  Bead:       0 f_centroid{atomic_unit}  cell{atomic_unit}
       O -3.52699e-05  9.36780e-06 -3.42681e-05
       O  2.19146e-05  1.34733e-05  5.01643e-07
       H -1.17879e-05 -4.37268e-06  1.50777e-05
       H -4.97096e-06  5.03917e-06 -1.58664e-05
       H  3.81576e-05 -2.20624e-05  2.19501e-05
       H  1.08159e-05 -6.18172e-07  2.57359e-06
       H -1.98526e-05  1.12266e-07  9.07079e-06
7
# CELL(abcABC):   25.29166    25.29166    25.29166    90.00000    90.00000    90.00000  Step:          23  Bead:       0 f_centroid{atomic_unit}  cell{atomic_unit}
       O  1.40687e-05  1.57698e-05  2.31339e-05
       O  2.79485e-05 -2.64421e-05  2.68471e-05
       H -3.13008e-05 -7.61275e-06 -2.43219e-05
       H -1.25624e-06 -2.80949e-06 -2.36767e-05
       H  1.72065e-05  2.36454e-05 -1.19087e-05
       H  8.13571e-06 -7.21769e-06  8.85194e-06
       H -3.35874e-05  4.32294e-06  5.59908e-07
7
# CELL(abcABC):   25.29166    25.29166    25.29166    90.00000    90.00000    90.00000  Step:          24  Bead:       0 f_centroid{atomic_unit}  cell{atomic_unit}
       O  1.62387e-05 -5.51950e-06 -1.42791e-05
       O -1.14511e-05  1.91463e-05 -2.23437e-05
       H -6.99174e-06  1.73998e-05  2.58922e-05
       H  2.79101e-06 -7.81597e-06 -1.65016e-05
       H  3.37735e-05 -7.09548e-06  3.33671e-06
       H -1.14539e-06 -1.93126e-05  3.05221e-05
       H -3.13307e-05  1.50351e-06 -6.75442e-06
7
# CELL(abcABC):   25.29166    25.29166    25.29166    90.00000    90.00000    90.00000  Step:          25  Bead:       0 f_centroid{atomic_unit}  cell{atomic_unit}
       O -6.85816e-06  3.25116e-05  1.20124e-05
       O -2.81787e-05 -2.60016e-05  2.94619e-05
       H -3.62235e-06  1.35131e-05  1.61123e-05
       H  5.52234e-06 -6.83826e-06 -1.40773e-05
       H  1.09978e-05  2.78916e-05 -1.70999e-05
       H  2.50012e-05 -5.73976e-06 -5.27507e-06
       H -2.99138e-06 -3.30800e-05 -2.12239e-05
7
# CELL(abcABC):   25.29166    25.29166    25.29166    90.00000    90.00000    90.00000  Step:          26  Bead:       0 f_centroid{atomic_unit}  cell{atomic_unit}
       O  4.29878e-06 -7.64544e-07  1.43530e-07
       O  5.78666e-06 -7.98650e-07 -2.13049e-05
       H -1.26477e-06  7.46638e-06  5.11875e-06
       H  8.00355e-06 -9.32232e-06  1.72946e-06
       H -1.54188e-06  8.72689e-06 -8.01492e-07
       H -5.14575e-06 -5.44844e-06  1.68683e-05
       H -1.17780e-05 -4.22062e-07 -1.78346e-06
7
# CELL(abcABC):   25.29166    25.29166    25.29166    90.00000    90.00000    90.00000  Step:          27  Bead:       0 f_centroid{atomic_unit}  cell{atomic_unit}
       O  1.70957e-06  3.07523e-06  5.28075e-06
       O -1.23933e-05 -1.03185e-05  1.20082e-06
       H -2.55795e-08  3.17328e-06 -1.32445e-06
       H  7.90976e-06 -5.69003e-06  4.26326e-07
       H -1.64846e-06  6.35794e-06  1.85025e-06
       H  1.27770e-05  4.48352e-06 -7.84013e-06
       H -6.70894e-06 -1.37277e-06 -2.72848e-07
7
# CELL(abcABC):   25.29166    25.29166    25.29166    90.00000    90.00000    90.00000  Step:          28  Bead:       0 f_centroid{atomic_unit}  cell{atomic_unit}
       O -8.39151e-06 -1.16245e-06 -1.57456e-06
       O -8.24230e-07  2.68017e-06 -1.12109e-05
       H  2.29221e-06  2.67448e-06  1.51346e-06
       H  7.07985e-06 -4.31015e-06  2.14442e-06
       H -5.42855e-07 -3.60103e-06  9.34222e-06
       H  4.69527e-06  4.70237e-06 -3.11218e-06
       H -2.48548e-06 -4.32010e-07  3.07807e-06
7
# CELL(abcABC):   25.29166    25.29166    25.29166    90.00000    90.00000    90.00000  Step:          29  Bead:       0 f_centroid{atomic_unit}  cell{atomic_unit}
       O -2.51532e-06  6.13909e-07  7.25180e-06
       O  1.00115e-05 -1.46372e-05  1.25766e-06
       H -1.74509e-06 -2.05347e-06 -8.36593e-06
       H  5.30349e-06 -6.49436e-07 -7.47491e-07
       H -9.28253e-06  1.01195e-05 -4.87432e-07
       H -3.53850e-07  3.07381e-06 -2.71854e-06
       H -2.24247e-06  1.37419e-06  3.02975e-06
7
# CELL(abcABC):   25.29166    25.29166    25.29166    90.00000    90.00000    90.00000  Step:          30  Bead:       0 f_centroid{atomic_unit}  cell{atomic_unit}
       O  3.57829e-06 -7.20348e-06 -7.94387e-07
       O  2.32063e-06  2.69154e-06 -7.40101e-06
       H -9.89075e-07  1.16529e-06 -2.33200e-06
       H  6.63647e-07  3.04254e-06 -5.81224e-07
       H  3.68061e-07 -2.01652e-06  5.90745e-06
       H -2.81233e-06  1.39266e-07  1.42109e-06
       H -2.00941e-06  2.63327e-06  3.25002e-06
7
# CELL(abcABC):   25.29166    25.29166    25.29166    90.00000    90.00000    90.00000  Step:          31  Bead:       0 f_centroid{atomic_unit}  cell{atomic_unit}
       O  6.53699e-07 -1.03455e-06 -1.35003e-07
       O -7.94387e-07 -1.61577e-06  2.47837e-06
       H -1.11982e-06  2.06484e-06 -1.64562e-06
       H  7.68807e-07  2.77112e-06 -1.45235e-06
       H -8.31335e-07  1.98810e-06  2.10036e-06
       H  9.79128e-07  1.69109e-07 -2.17852e-06
       H  1.74651e-06 -2.83649e-06  7.30438e-07
7
# CELL(abcABC):   25.29166    25.29166    25.29166    90.00000    90.00000    90.00000  Step:          32  Bead:       0 f_centroid{atomic_unit}  cell{atomic_unit}
       O  6.53699e-07 -1.03455e-06 -1.35003e-07
       O -7.94387e-07 -1.61577e-06  2.47837e-06
       H -1.11982e-06  2.06484e-06 -1.64562e-06
       H  7.68807e-07  2.77112e-06 -1.45235e-06
       H -8.31335e-07  1.98810e-06  2.10036e-06
       H  9.79128e-07  1.69109e-07 -2.17852e-06
       H  1.74651e-06 -2.83649e-06  7.30438e-07
