7
# CELL(abcABC):   25.29166    25.29166    25.29166    90.00000    90.00000    90.00000  Step:           0  Bead:       0 x_centroid{atomic_unit}  cell{atomic_unit}
       O  1.02130e+00 -1.84220e+00 -4.09276e-01
       O  5.52715e+00 -1.58596e+00  2.87988e-01
       H  3.47444e-01 -2.37735e+00 -2.03854e+00
       H  3.29434e+00 -1.71829e+00 -1.89719e-01
       H  6.23055e+00 -3.01079e+00  1.22313e+00
       H  6.67136e+00 -1.14921e+00 -1.08863e+00
       H  7.99951e-02 -3.68232e-01  1.74386e-01
7
# CELL(abcABC):   25.29166    25.29166    25.29166    90.00000    90.00000    90.00000  Step:           1  Bead:       0 x_centroid{atomic_unit}  cell{atomic_unit}
       O  1.02495e+00 -1.83630e+00 -4.14304e-01
       O  5.52517e+00 -1.59224e+00  2.82448e-01
       H  3.51377e-01 -2.37241e+00 -2.02691e+00
       H  3.29402e+00 -1.71822e+00 -1.87663e-01
       H  6.22607e+00 -3.00070e+00  1.21530e+00
       H  6.66401e+00 -1.15342e+00 -1.07846e+00
       H  8.65366e-02 -3.78731e-01  1.68934e-01
7
# CELL(abcABC):   25.29166    25.29166    25.29166    90.00000    90.00000    90.00000  Step:           2  Bead:       0 x_centroid{atomic_unit}  cell{atomic_unit}
       O  1.04410e+00 -1.83392e+00 -4.13840e-01
       O  5.50676e+00 -1.59479e+00  2.77142e-01
       H  3.52761e-01 -2.36933e+00 -2.02159e+00
       H  3.29361e+00 -1.71814e+00 -1.84948e-01
       H  6.22416e+00 -2.99616e+00  1.21076e+00
       H  6.66105e+00 -1.15613e+00 -1.07364e+00
       H  8.96908e-02 -3.83550e-01  1.65455e-01
7
# CELL(abcABC):   25.29166    25.29166    25.29166    90.00000    90.00000    90.00000  Step:           3  Bead:       0 x_centroid{atomic_unit}  cell{atomic_unit}
       O  1.04873e+00 -1.83294e+00 -4.16414e-01
       O  5.50306e+00 -1.59610e+00  2.73303e-01
       H  3.61318e-01 -2.37325e+00 -2.02021e+00
       H  3.29399e+00 -1.71823e+00 -1.87084e-01
       H  6.21561e+00 -2.99772e+00  1.21399e+00
       H  6.65259e+00 -1.15215e+00 -1.07524e+00
       H  9.68309e-02 -3.81658e-01  1.70998e-01
7
# CELL(abcABC):   25.29166    25.29166    25.29166    90.00000    90.00000    90.00000  Step:           4  Bead:       0 x_centroid{atomic_unit}  cell{atomic_unit}
       O  1.05070e+00 -1.83105e+00 -4.15322e-01
       O  5.50084e+00 -1.59793e+00  2.73749e-01
       H  3.64944e-01 -2.37571e+00 -2.02126e+00
       H  3.29423e+00 -1.71829e+00 -1.88450e-01
       H  6.21078e+00 -2.99760e+00  1.21483e+00
       H  6.64947e+00 -1.14978e+00 -1.07746e+00
       H  1.01178e-01 -3.81695e-01  1.73246e-01
7
# CELL(abcABC):   25.29166    25.29166    25.29166    90.00000    90.00000    90.00000  Step:           5  Bead:       0 x_centroid{atomic_unit}  cell{atomic_unit}
       O  1.05036e+00 -1.83443e+00 -4.13200e-01
       O  5.50060e+00 -1.59449e+00  2.75616e-01
       H  3.66451e-01 -2.37586e+00 -2.02222e+00
       H  3.29439e+00 -1.71835e+00 -1.89475e-01
       H  6.20796e+00 -2.99923e+00  1.21411e+00
       H  6.64831e+00 -1.14971e+00 -1.07881e+00
       H  1.04046e-01 -3.80031e-01  1.73333e-01
7
# CELL(abcABC):   25.29166    25.29166    25.29166    90.00000    90.00000    90.00000  Step:           6  Bead:       0 x_centroid{atomic_unit}  cell{atomic_unit}
       O  1.04885e+00 -1.83716e+00 -4.11389e-01
       O  5.50145e+00 -1.59162e+00  2.77584e-01
       H  3.68148e-01 -2.37546e+00 -2.02219e+00
       H  3.29452e+00 -1.71839e+00 -1.90215e-01
       H  6.20462e+00 -2.99970e+00  1.21230e+00
       H  6.64672e+00 -1.15009e+00 -1.07931e+00
       H  1.07813e-01 -3.79694e-01  1.72585e-01
7
# CELL(abcABC):   25.29166    25.29166    25.29166    90.00000    90.00000    90.00000  Step:           7  Bead:       0 x_centroid{atomic_unit}  cell{atomic_unit}
       O  1.05001e+00 -1.84000e+00 -4.10032e-01
       O  5.49989e+00 -1.58874e+00  2.78364e-01
       H  3.68898e-01 -2.37426e+00 -2.02141e+00
       H  3.29437e+00 -1.71837e+00 -1.89301e-01
       H  6.20212e+00 -2.99967e+00  1.20968e+00
       H  6.64580e+00 -1.15122e+00 -1.07878e+00
       H  1.11009e-01 -3.79873e-01  1.70849e-01
7
# CELL(abcABC):   25.29166    25.29166    25.29166    90.00000    90.00000    90.00000  Step:           8  Bead:       0 x_centroid{atomic_unit}  cell{atomic_unit}
       O  1.05009e+00 -1.84000e+00 -4.09792e-01
       O  5.49978e+00 -1.58872e+00  2.78525e-01
       H  3.68857e-01 -2.37428e+00 -2.02154e+00
       H  3.29434e+00 -1.71836e+00 -1.89128e-01
       H  6.20191e+00 -2.99958e+00  1.20945e+00
       H  6.64584e+00 -1.15122e+00 -1.07884e+00
       H  1.11270e-01 -3.79967e-01  1.70699e-01
7
# CELL(abcABC):   25.29166    25.29166    25.29166    90.00000    90.00000    90.00000  Step:           9  Bead:       0 x_centroid{atomic_unit}  cell{atomic_unit}
       O  1.05010e+00 -1.84012e+00 -4.09971e-01
       O  5.49993e+00 -1.58867e+00  2.78342e-01
       H  3.68788e-01 -2.37455e+00 -2.02170e+00
       H  3.29417e+00 -1.71832e+00 -1.88120e-01
       H  6.20158e+00 -2.99970e+00  1.20918e+00
       H  6.64589e+00 -1.15099e+00 -1.07893e+00
       H  1.11635e-01 -3.79805e-01  1.70566e-01
7
# CELL(abcABC):   25.29166    25.29166    25.29166    90.00000    90.00000    90.00000  Step:          10  Bead:       0 x_centroid{atomic_unit}  cell{atomic_unit}
       O  1.05006e+00 -1.84009e+00 -4.09991e-01
       O  5.49986e+00 -1.58864e+00  2.78367e-01
       H  3.68819e-01 -2.37460e+00 -2.02168e+00
       H  3.29414e+00 -1.71831e+00 -1.87992e-01
       H  6.20160e+00 -2.99980e+00  1.20916e+00
       H  6.64593e+00 -1.15092e+00 -1.07900e+00
       H  1.11685e-01 -3.79784e-01  1.70513e-01
