7
# CELL(abcABC):   25.29166    25.29166    25.29166    90.00000    90.00000    90.00000  Step:           0  Bead:       0 f_centroid{atomic_unit}  cell{atomic_unit}
       O  1.81782e-03  2.94126e-03 -2.50671e-03
       O -9.85165e-04 -3.13301e-03 -2.76220e-03
       H  1.96107e-03  2.46574e-03  5.79977e-03
       H -1.56524e-04  3.14017e-05  1.02516e-03
       H -2.23501e-03  5.02979e-03 -3.90609e-03
       H -3.66372e-03 -2.09913e-03  5.06836e-03
       H  3.26160e-03 -5.23500e-03 -2.71833e-03
7
# CELL(abcABC):   25.29166    25.29166    25.29166    90.00000    90.00000    90.00000  Step:           1  Bead:       0 f_centroid{atomic_unit}  cell{atomic_unit}
       O  7.03826e-03 -4.62491e-04  1.42535e-03
       O -7.14188e-03  4.84502e-04 -8.38946e-04
       H -3.91478e-04  6.17518e-05 -6.47262e-04
       H -9.33696e-05  1.81046e-05  6.20194e-04
       H  3.08978e-04 -5.90673e-04  4.19803e-05
       H  5.76109e-04 -8.98424e-05 -4.96750e-04
       H -2.98074e-04  5.79432e-04 -1.03874e-04
7
# CELL(abcABC):   25.29166    25.29166    25.29166    90.00000    90.00000    90.00000  Step:           2  Bead:       0 f_centroid{atomic_unit}  cell{atomic_unit}
       O  1.08940e-04  6.10896e-05 -3.07674e-04
       O -1.82112e-05 -9.44894e-05 -3.25471e-04
       H  9.57640e-04 -5.21078e-04  4.05123e-05
       H  5.31244e-05 -1.23279e-05 -3.07118e-04
       H -9.45609e-04 -2.82003e-04  4.73845e-04
       H -9.10744e-04  5.20564e-04 -2.92076e-04
       H  7.54649e-04  3.25748e-04  7.17802e-04
7
# CELL(abcABC):   25.29166    25.29166    25.29166    90.00000    90.00000    90.00000  Step:           3  Bead:       0 f_centroid{atomic_unit}  cell{atomic_unit}
       O -8.39037e-05  1.16728e-03  1.81606e-03
       O -4.57197e-04 -1.00569e-03  1.75156e-03
       H -1.64033e-04 -5.71457e-04 -1.34467e-03
       H  5.48923e-05 -1.50564e-05 -3.32207e-04
       H -8.13624e-04  6.65470e-04 -4.88889e-04
       H  5.33542e-04  4.71964e-04 -1.21678e-03
       H  9.32063e-04 -7.14668e-04 -1.88415e-04
7
# CELL(abcABC):   25.29166    25.29166    25.29166    90.00000    90.00000    90.00000  Step:           4  Bead:       0 f_centroid{atomic_unit}  cell{atomic_unit}
       O -9.38030e-05 -4.08326e-04  1.88562e-04
       O  4.20954e-05  4.12882e-04  1.81169e-04
       H  4.85102e-05  5.83512e-05 -6.87422e-05
       H  1.01153e-05 -3.74172e-06 -6.59213e-05
       H -1.49262e-04 -1.73266e-04 -1.00178e-04
       H -2.75193e-05 -6.26471e-05 -7.40542e-05
       H  1.68747e-04  1.74565e-04 -5.82119e-05
7
# CELL(abcABC):   25.29166    25.29166    25.29166    90.00000    90.00000    90.00000  Step:           5  Bead:       0 f_centroid{atomic_unit}  cell{atomic_unit}
       O -5.21204e-04  1.47007e-04 -5.19719e-05
       O  4.56370e-04 -1.07626e-04  1.16677e-04
       H  1.40493e-04  2.28546e-04  3.87752e-04
       H -1.23052e-05  2.28368e-06  8.28791e-05
       H -3.33057e-04  4.33953e-04 -4.95004e-04
       H -2.28331e-04 -1.98094e-04  3.14159e-04
       H  4.99730e-04 -5.07077e-04 -3.56920e-04
7
# CELL(abcABC):   25.29166    25.29166    25.29166    90.00000    90.00000    90.00000  Step:           6  Bead:       0 f_centroid{atomic_unit}  cell{atomic_unit}
       O  4.18649e-04 -1.49355e-04  2.21831e-06
       O -4.00659e-04  1.36315e-04 -1.24923e-04
       H -9.35572e-05  1.65410e-04  1.38988e-04
       H -4.37652e-05  9.47296e-06  2.68066e-04
       H -3.48734e-06  7.03125e-05 -2.34769e-04
       H  4.78678e-05 -1.53577e-04  1.64810e-04
       H  7.25663e-05 -7.86017e-05 -2.16009e-04
7
# CELL(abcABC):   25.29166    25.29166    25.29166    90.00000    90.00000    90.00000  Step:           7  Bead:       0 f_centroid{atomic_unit}  cell{atomic_unit}
       O  2.04594e-05  1.55129e-04  1.68994e-04
       O -2.06256e-05 -1.33846e-04  1.20987e-04
       H -8.17039e-05 -8.23462e-05 -1.70289e-04
       H -2.25867e-05  3.40350e-06  1.24766e-04
       H -7.16440e-05  8.64333e-05 -9.01309e-05
       H  8.69619e-05  5.84066e-05 -9.48887e-05
       H  9.03142e-05 -8.55806e-05 -5.70694e-05
7
# CELL(abcABC):   25.29166    25.29166    25.29166    90.00000    90.00000    90.00000  Step:           8  Bead:       0 f_centroid{atomic_unit}  cell{atomic_unit}
       O -1.04336e-05 -1.70530e-05 -5.95904e-05
       O  3.60203e-05  3.93925e-06 -4.91369e-05
       H -4.15952e-06 -3.63173e-05 -4.88996e-06
       H -2.03102e-05  5.87761e-06  1.20340e-04
       H -1.89132e-05 -2.94463e-05 -5.98845e-06
       H  1.72236e-06  3.34325e-05 -2.72848e-06
       H  1.54444e-05  3.65944e-05  2.03215e-06
7
# CELL(abcABC):   25.29166    25.29166    25.29166    90.00000    90.00000    90.00000  Step:           9  Bead:       0 f_centroid{atomic_unit}  cell{atomic_unit}
       O -2.82142e-05  2.73332e-05 -1.27898e-07
       O -5.37810e-05  1.10319e-05  2.87287e-05
       H  2.40760e-05 -1.54827e-05  2.07876e-05
       H -2.00799e-06 -4.83169e-08  8.05471e-06
       H  3.44343e-05 -5.29511e-05  6.25562e-06
       H  1.91960e-05  3.01355e-05 -3.67777e-05
       H  4.92832e-06  1.56177e-06 -2.35403e-05
7
# CELL(abcABC):   25.29166    25.29166    25.29166    90.00000    90.00000    90.00000  Step:          10  Bead:       0 f_centroid{atomic_unit}  cell{atomic_unit}
       O -2.14015e-06  4.86153e-06  9.82965e-06
       O  2.12552e-05 -1.40830e-05  6.37357e-06
       H  1.70019e-05 -1.58664e-05  8.07603e-06
       H -1.19087e-06 -2.34053e-06 -4.28173e-06
       H  1.42421e-05 -1.11683e-05 -1.87384e-05
       H -3.28299e-05  1.23194e-05  1.62160e-05
       H -1.67674e-05  2.51518e-05 -1.81856e-05
