7
# CELL(abcABC):   13.38377    13.38377    13.38377    90.00000    90.00000    90.00000  Step:           0  Bead:       0 forces{atomic_unit}  cell{angstrom}
       O  1.81818e-03  2.94116e-03 -2.50697e-03
       O -9.85287e-04 -3.13292e-03 -2.76265e-03
       H  1.96107e-03  2.46561e-03  5.79956e-03
       H -1.56506e-04  3.13435e-05  1.02557e-03
       H -2.23442e-03  5.02951e-03 -3.90613e-03
       H -3.66320e-03 -2.09904e-03  5.06834e-03
       H  3.26133e-03 -5.23466e-03 -2.71860e-03
7
# CELL(abcABC):   13.38377    13.38377    13.38377    90.00000    90.00000    90.00000  Step:           1  Bead:       0 forces{atomic_unit}  cell{angstrom}
       O  1.89476e-03  2.89830e-03 -2.45855e-03
       O -1.07289e-03 -3.08759e-03 -2.74433e-03
       H  1.93059e-03  2.43258e-03  5.71649e-03
       H -1.57608e-04  3.16263e-05  1.02407e-03
       H -2.20143e-03  4.95603e-03 -3.85288e-03
       H -3.60761e-03 -2.07206e-03  4.99794e-03
       H  3.21283e-03 -5.15812e-03 -2.68223e-03
7
# CELL(abcABC):   13.38377    13.38377    13.38377    90.00000    90.00000    90.00000  Step:           2  Bead:       0 forces{atomic_unit}  cell{angstrom}
       O  2.12455e-03  2.77129e-03 -2.31537e-03
       O -1.33437e-03 -2.95413e-03 -2.68566e-03
       H  1.84007e-03  2.33641e-03  5.46587e-03
       H -1.56496e-04  3.02336e-05  1.02242e-03
       H -2.10407e-03  4.73641e-03 -3.69537e-03
       H -3.44293e-03 -1.99056e-03  4.78159e-03
       H  3.07413e-03 -4.93190e-03 -2.57610e-03
7
# CELL(abcABC):   13.38377    13.38377    13.38377    90.00000    90.00000    90.00000  Step:           3  Bead:       0 forces{atomic_unit}  cell{angstrom}
       O  2.69387e-03  2.46201e-03 -1.96591e-03
       O -1.98035e-03 -2.62791e-03 -2.54826e-03
       H  1.60213e-03  2.11549e-03  4.87218e-03
       H -1.58185e-04  3.06898e-05  1.03025e-03
       H -1.85409e-03  4.21723e-03 -3.32700e-03
       H -3.03333e-03 -1.80510e-03  4.27575e-03
       H  2.72997e-03 -4.39245e-03 -2.33681e-03
7
# CELL(abcABC):   13.38377    13.38377    13.38377    90.00000    90.00000    90.00000  Step:           4  Bead:       0 forces{atomic_unit}  cell{angstrom}
       O  3.78330e-03  1.87693e-03 -1.30928e-03
       O -3.21307e-03 -2.01163e-03 -2.29368e-03
       H  1.13979e-03  1.71372e-03  3.76146e-03
       H -1.60588e-04  3.26537e-05  1.05577e-03
       H -1.37169e-03  3.24850e-03 -2.65017e-03
       H -2.25055e-03 -1.47096e-03  3.33672e-03
       H  2.07408e-03 -3.38843e-03 -1.90150e-03
