7
# CELL(abcABC):   13.38377    13.38377    13.38377    90.00000    90.00000    90.00000  Step:           0  Bead:       0 velocities{atomic_unit}  cell{angstrom}
       O  0.00000e+00  0.00000e+00  0.00000e+00
       O  0.00000e+00  0.00000e+00  0.00000e+00
       H  0.00000e+00  0.00000e+00  0.00000e+00
       H  0.00000e+00  0.00000e+00  0.00000e+00
       H  0.00000e+00  0.00000e+00  0.00000e+00
       H  0.00000e+00  0.00000e+00  0.00000e+00
       H  0.00000e+00  0.00000e+00  0.00000e+00
7
# CELL(abcABC):   13.38377    13.38377    13.38377    90.00000    90.00000    90.00000  Step:           1  Bead:       0 velocities{atomic_unit}  cell{angstrom}
       O  6.57620e-07  1.03469e-06 -8.79807e-07
       O -3.64908e-07 -1.10243e-06 -9.75805e-07
       H  1.09468e-05  1.37789e-05  3.23885e-05
       H -8.80384e-07  1.73258e-07  5.76967e-06
       H -1.24775e-05  2.80849e-05 -2.18211e-05
       H -2.04472e-05 -1.17280e-05  2.83098e-05
       H  1.82119e-05 -2.92338e-05 -1.51921e-05
7
# CELL(abcABC):   13.38377    13.38377    13.38377    90.00000    90.00000    90.00000  Step:           2  Bead:       0 velocities{atomic_unit}  cell{angstrom}
       O  2.24838e-06  2.19375e-06 -1.76785e-06
       O -1.61706e-06 -2.33874e-06 -2.23666e-06
       H  3.93365e-05  3.35570e-05  7.85052e-05
       H -1.64779e-06  3.21000e-07  1.08098e-05
       H -4.20497e-05  6.66746e-05 -5.50943e-05
       H -6.17517e-05 -2.87441e-05  6.47248e-05
       H  5.60914e-05 -6.95069e-05 -3.53805e-05
7
# CELL(abcABC):   13.38377    13.38377    13.38377    90.00000    90.00000    90.00000  Step:           3  Bead:       0 velocities{atomic_unit}  cell{angstrom}
       O  5.71512e-06  3.58000e-06 -2.65149e-06
       O -4.65854e-06 -3.82011e-06 -4.05182e-06
       H  1.01892e-04  6.49896e-05  1.51179e-04
       H -2.19825e-06  4.24374e-07  1.44336e-05
       H -1.05097e-04  1.25531e-04 -1.10653e-04
       H -1.43815e-04 -5.60473e-05  1.16682e-04
       H  1.32446e-04 -1.31086e-04 -6.52371e-05
7
# CELL(abcABC):   13.38377    13.38377    13.38377    90.00000    90.00000    90.00000  Step:           4  Bead:       0 velocities{atomic_unit}  cell{angstrom}
       O  1.11396e-05  5.09985e-06 -3.43674e-06
       O -9.59587e-06 -5.44822e-06 -6.36272e-06
       H  1.96144e-04  1.06708e-04  2.46800e-04
       H -2.54691e-06  4.85064e-07  1.67796e-05
       H -1.99134e-04  2.01623e-04 -1.86054e-04
       H -2.63168e-04 -9.24686e-05  1.81418e-04
       H  2.44200e-04 -2.10818e-04 -1.03392e-04
