7
# CELL(abcABC):   13.38377    13.38377    13.38377    90.00000    90.00000    90.00000  Step:           0  Bead:       0 forces{atomic_unit}  cell{angstrom}
       O  1.81784e-03  2.94126e-03 -2.50645e-03
       O -9.85348e-04 -3.13317e-03 -2.76257e-03
       H  1.96092e-03  2.46540e-03  5.79963e-03
       H -1.56726e-04  3.13790e-05  1.02564e-03
       H -2.23462e-03  5.02941e-03 -3.90592e-03
       H -3.66343e-03 -2.09872e-03  5.06842e-03
       H  3.26097e-03 -5.23526e-03 -2.71847e-03
7
# CELL(abcABC):   13.38377    13.38377    13.38377    90.00000    90.00000    90.00000  Step:           1  Bead:       0 forces{atomic_unit}  cell{angstrom}
       O  1.89500e-03  2.89934e-03 -2.45821e-03
       O -1.07273e-03 -3.08761e-03 -2.74387e-03
       H  1.93128e-03  2.43376e-03  5.71614e-03
       H -1.56207e-04  3.02890e-05  1.02581e-03
       H -2.20165e-03  4.95621e-03 -3.85252e-03
       H -3.60646e-03 -2.07111e-03  4.99716e-03
       H  3.21436e-03 -5.15874e-03 -2.68301e-03
7
# CELL(abcABC):   13.38377    13.38377    13.38377    90.00000    90.00000    90.00000  Step:           2  Bead:       0 forces{atomic_unit}  cell{angstrom}
       O  2.12451e-03  2.77144e-03 -2.31514e-03
       O -1.33348e-03 -2.95473e-03 -2.68555e-03
       H  1.83859e-03  2.33600e-03  5.46636e-03
       H -1.56707e-04  3.09825e-05  1.02287e-03
       H -2.10405e-03  4.73694e-03 -3.69480e-03
       H -3.44309e-03 -1.99046e-03  4.78250e-03
       H  3.07422e-03 -4.93133e-03 -2.57627e-03
7
# CELL(abcABC):   13.38377    13.38377    13.38377    90.00000    90.00000    90.00000  Step:           3  Bead:       0 forces{atomic_unit}  cell{angstrom}
       O  2.69468e-03  2.46158e-03 -1.96629e-03
       O -1.98047e-03 -2.62714e-03 -2.54815e-03
       H  1.60122e-03  2.11481e-03  4.87214e-03
       H -1.58498e-04  3.16561e-05  1.02895e-03
       H -1.85398e-03  4.21755e-03 -3.32790e-03
       H -3.03271e-03 -1.80638e-03  4.27460e-03
       H  2.72926e-03 -4.39230e-03 -2.33665e-03
7
# CELL(abcABC):   13.38377    13.38377    13.38377    90.00000    90.00000    90.00000  Step:           4  Bead:       0 forces{atomic_unit}  cell{angstrom}
       O  3.78403e-03  1.87618e-03 -1.31046e-03
       O -3.21273e-03 -2.01101e-03 -2.29281e-03
       H  1.13927e-03  1.71467e-03  3.76157e-03
       H -1.61207e-04  3.24093e-05  1.05583e-03
       H -1.37168e-03  3.24848e-03 -2.64976e-03
       H -2.25094e-03 -1.47189e-03  3.33587e-03
       H  2.07349e-03 -3.38736e-03 -1.90076e-03
