7
# CELL(abcABC):   13.38377    13.38377    13.38377    90.00000    90.00000    90.00000  Step:           0  Bead:       0 positions{angstrom}  cell{angstrom}
       O  5.40450e-01 -9.74850e-01 -2.16580e-01
       O  2.92484e+00 -8.39252e-01  1.52397e-01
       H  1.83860e-01 -1.25804e+00 -1.07875e+00
       H  1.74329e+00 -9.09278e-01 -1.00395e-01
       H  3.29707e+00 -1.59324e+00  6.47253e-01
       H  3.53033e+00 -6.08138e-01 -5.76078e-01
       H  4.23316e-02 -1.94860e-01  9.22810e-02
7
# CELL(abcABC):   13.38377    13.38377    13.38377    90.00000    90.00000    90.00000  Step:           1  Bead:       0 positions{angstrom}  cell{angstrom}
       O  5.40452e-01 -9.74847e-01 -2.16582e-01
       O  2.92484e+00 -8.39255e-01  1.52394e-01
       H  1.83890e-01 -1.25800e+00 -1.07866e+00
       H  1.74328e+00 -9.09278e-01 -1.00379e-01
       H  3.29703e+00 -1.59316e+00  6.47192e-01
       H  3.53027e+00 -6.08170e-01 -5.76000e-01
       H  4.23817e-02 -1.94940e-01  9.22392e-02
7
# CELL(abcABC):   13.38377    13.38377    13.38377    90.00000    90.00000    90.00000  Step:           2  Bead:       0 positions{angstrom}  cell{angstrom}
       O  5.40457e-01 -9.74839e-01 -2.16589e-01
       O  2.92484e+00 -8.39264e-01  1.52386e-01
       H  1.83979e-01 -1.25789e+00 -1.07840e+00
       H  1.74328e+00 -9.09276e-01 -1.00332e-01
       H  3.29693e+00 -1.59293e+00  6.47014e-01
       H  3.53011e+00 -6.08266e-01 -5.75769e-01
       H  4.25308e-02 -1.95180e-01  9.21148e-02
7
# CELL(abcABC):   13.38377    13.38377    13.38377    90.00000    90.00000    90.00000  Step:           3  Bead:       0 positions{angstrom}  cell{angstrom}
       O  5.40476e-01 -9.74823e-01 -2.16601e-01
       O  2.92482e+00 -8.39281e-01  1.52370e-01
       H  1.84320e-01 -1.25764e+00 -1.07780e+00
       H  1.74327e+00 -9.09274e-01 -1.00261e-01
       H  3.29657e+00 -1.59244e+00  6.46590e-01
       H  3.52960e+00 -6.08485e-01 -5.75292e-01
       H  4.29953e-02 -1.95701e-01  9.18522e-02
7
# CELL(abcABC):   13.38377    13.38377    13.38377    90.00000    90.00000    90.00000  Step:           4  Bead:       0 positions{angstrom}  cell{angstrom}
       O  5.40520e-01 -9.74800e-01 -2.16618e-01
       O  2.92479e+00 -8.39306e-01  1.52342e-01
       H  1.85094e-01 -1.25718e+00 -1.07674e+00
       H  1.74325e+00 -9.09271e-01 -1.00174e-01
       H  3.29578e+00 -1.59156e+00  6.45803e-01
       H  3.52853e+00 -6.08879e-01 -5.74492e-01
       H  4.39795e-02 -1.96614e-01  9.14012e-02
