3
# CELL(abcABC):   25.29166    25.29166    25.29166    90.00000    90.00000    90.00000  Step:           0  Bead:       0 f_centroid{atomic_unit}  cell{atomic_unit}
       O -7.34145e-03  4.55046e-03 -4.38801e-03
       H  1.78151e-03  1.10616e-02  1.67248e-02
       H  5.55994e-03 -1.56120e-02 -1.23368e-02
3
# CELL(abcABC):   25.29166    25.29166    25.29166    90.00000    90.00000    90.00000  Step:           1  Bead:       0 f_centroid{atomic_unit}  cell{atomic_unit}
       O  8.65905e-03 -5.28624e-03  5.27970e-03
       H -4.51049e-03  4.79162e-03 -1.26819e-04
       H -4.14856e-03  4.94623e-04 -5.15288e-03
3
# CELL(abcABC):   25.29166    25.29166    25.29166    90.00000    90.00000    90.00000  Step:           2  Bead:       0 f_centroid{atomic_unit}  cell{atomic_unit}
       O  6.31065e-03 -3.67256e-03  4.07952e-03
       H -3.43331e-03  3.94932e-03  2.92230e-04
       H -2.87734e-03 -2.76760e-04 -4.37175e-03
3
# CELL(abcABC):   25.29166    25.29166    25.29166    90.00000    90.00000    90.00000  Step:           3  Bead:       0 f_centroid{atomic_unit}  cell{atomic_unit}
       O -4.51897e-04  6.63822e-05 -5.45201e-04
       H  3.09835e-04 -1.97296e-05  4.06997e-04
       H  1.42063e-04 -4.66526e-05  1.38205e-04
3
# CELL(abcABC):   25.29166    25.29166    25.29166    90.00000    90.00000    90.00000  Step:           4  Bead:       0 f_centroid{atomic_unit}  cell{atomic_unit}
       O  1.61161e-05  3.93513e-05  7.31445e-05
       H -3.01559e-05 -1.32695e-05 -5.91650e-05
       H  1.40398e-05 -2.60818e-05 -1.39794e-05
3
# CELL(abcABC):   25.29166    25.29166    25.29166    90.00000    90.00000    90.00000  Step:           5  Bead:       0 f_centroid{atomic_unit}  cell{atomic_unit}
       O  3.06014e-06 -8.46667e-06 -6.62781e-06
       H  1.62855e-06  2.42272e-06  5.39129e-06
       H -4.68869e-06  6.04395e-06  1.23652e-06
3
# CELL(abcABC):   25.29166    25.29166    25.29166    90.00000    90.00000    90.00000  Step:           6  Bead:       0 f_centroid{atomic_unit}  cell{atomic_unit}
       O -3.80244e-07  3.67567e-07 -5.75158e-08
       H  1.12993e-07 -8.50980e-08  4.81496e-08
       H  2.67251e-07 -2.82469e-07  9.36624e-09
3
# CELL(abcABC):   25.29166    25.29166    25.29166    90.00000    90.00000    90.00000  Step:           7  Bead:       0 f_centroid{atomic_unit}  cell{atomic_unit}
       O  1.08727e-08 -6.13183e-10  1.43842e-08
       H -7.79240e-09 -6.76729e-10 -1.17458e-08
       H -3.08032e-09  1.28991e-09 -2.63837e-09
