3
# CELL(abcABC):   25.29166    25.29166    25.29166    90.00000    90.00000    90.00000  Step:           0  Bead:       0 x_centroid{atomic_unit}  cell{atomic_unit}
       O  1.02130e+00 -1.84220e+00 -4.09276e-01
       H  3.47444e-01 -2.37735e+00 -2.03854e+00
       H  7.99951e-02 -3.68232e-01  1.74386e-01
3
# CELL(abcABC):   25.29166    25.29166    25.29166    90.00000    90.00000    90.00000  Step:           1  Bead:       0 x_centroid{atomic_unit}  cell{atomic_unit}
       O  1.00976e+00 -1.83505e+00 -4.16175e-01
       H  3.50245e-01 -2.35996e+00 -2.01225e+00
       H  8.87367e-02 -3.92778e-01  1.54989e-01
3
# CELL(abcABC):   25.29166    25.29166    25.29166    90.00000    90.00000    90.00000  Step:           2  Bead:       0 x_centroid{atomic_unit}  cell{atomic_unit}
       O  1.01666e+00 -1.83924e+00 -4.11951e-01
       H  3.46250e-01 -2.35317e+00 -2.00909e+00
       H  8.58317e-02 -3.95367e-01  1.47602e-01
3
# CELL(abcABC):   25.29166    25.29166    25.29166    90.00000    90.00000    90.00000  Step:           3  Bead:       0 x_centroid{atomic_unit}  cell{atomic_unit}
       O  1.04121e+00 -1.85335e+00 -3.95842e-01
       H  3.31080e-01 -2.32483e+00 -1.99377e+00
       H  7.64506e-02 -4.09608e-01  1.16179e-01
3
# CELL(abcABC):   25.29166    25.29166    25.29166    90.00000    90.00000    90.00000  Step:           4  Bead:       0 x_centroid{atomic_unit}  cell{atomic_unit}
       O  1.04014e+00 -1.85292e+00 -3.96791e-01
       H  3.31782e-01 -2.32565e+00 -1.99384e+00
       H  7.68188e-02 -4.09216e-01  1.17198e-01
3
# CELL(abcABC):   25.29166    25.29166    25.29166    90.00000    90.00000    90.00000  Step:           5  Bead:       0 x_centroid{atomic_unit}  cell{atomic_unit}
       O  1.04017e+00 -1.85290e+00 -3.96715e-01
       H  3.31746e-01 -2.32564e+00 -1.99389e+00
       H  7.68267e-02 -4.09248e-01  1.17167e-01
3
# CELL(abcABC):   25.29166    25.29166    25.29166    90.00000    90.00000    90.00000  Step:           6  Bead:       0 x_centroid{atomic_unit}  cell{atomic_unit}
       O  1.04018e+00 -1.85291e+00 -3.96718e-01
       H  3.31744e-01 -2.32563e+00 -1.99388e+00
       H  7.68211e-02 -4.09246e-01  1.17162e-01
3
# CELL(abcABC):   25.29166    25.29166    25.29166    90.00000    90.00000    90.00000  Step:           7  Bead:       0 x_centroid{atomic_unit}  cell{atomic_unit}
       O  1.04018e+00 -1.85290e+00 -3.96718e-01
       H  3.31745e-01 -2.32564e+00 -1.99388e+00
       H  7.68215e-02 -4.09246e-01  1.17163e-01
