3
# CELL(abcABC):   25.29166    25.29166    25.29166    90.00000    90.00000    90.00000  Step:           0  Bead:       0 x_centroid{atomic_unit}  cell{atomic_unit}
       O  1.02130e+00 -1.84220e+00 -4.09276e-01
       H  3.47444e-01 -2.37735e+00 -2.03854e+00
       H  7.99951e-02 -3.68232e-01  1.74386e-01
3
# CELL(abcABC):   25.29166    25.29166    25.29166    90.00000    90.00000    90.00000  Step:          20  Bead:       0 x_centroid{atomic_unit}  cell{atomic_unit}
       O  9.69225e-01 -1.82197e+00 -4.19100e-01
       H  8.30712e-01 -2.73182e+00 -2.12743e+00
       H  4.23365e-01 -3.34913e-01  4.19203e-01
3
# CELL(abcABC):   25.29166    25.29166    25.29166    90.00000    90.00000    90.00000  Step:          40  Bead:       0 x_centroid{atomic_unit}  cell{atomic_unit}
       O  9.86598e-01 -1.84319e+00 -4.13643e-01
       H  7.48846e-01 -2.49957e+00 -2.31041e+00
       H  2.29459e-01 -2.30219e-01  5.15560e-01
3
# CELL(abcABC):   25.29166    25.29166    25.29166    90.00000    90.00000    90.00000  Step:          60  Bead:       0 x_centroid{atomic_unit}  cell{atomic_unit}
       O  9.76284e-01 -1.83587e+00 -4.39929e-01
       H  8.20561e-01 -2.52441e+00 -2.28179e+00
       H  3.21472e-01 -3.21702e-01  9.04183e-01
3
# CELL(abcABC):   25.29166    25.29166    25.29166    90.00000    90.00000    90.00000  Step:          80  Bead:       0 x_centroid{atomic_unit}  cell{atomic_unit}
       O  9.99042e-01 -1.80673e+00 -4.46798e-01
       H  6.00194e-01 -2.74082e+00 -2.21121e+00
       H  1.80588e-01 -5.67817e-01  9.42645e-01
3
# CELL(abcABC):   25.29166    25.29166    25.29166    90.00000    90.00000    90.00000  Step:         100  Bead:       0 x_centroid{atomic_unit}  cell{atomic_unit}
       O  1.01297e+00 -1.78473e+00 -4.65187e-01
       H  3.71459e-01 -2.89285e+00 -2.07779e+00
       H  1.88253e-01 -7.64974e-01  1.10112e+00
