#Bead    Energy (eV)
0     -0.13899084535513387
1     -0.13878394777575656
2     -0.13837183319616583
3     -0.1377560312604495
4     -0.136937946245247
5     -0.13591889309649482
6     -0.13470014279763076
7     -0.1332829760671963
8     -0.13166874449284877
9     -0.12985893825160708
10     -0.12785525961566413
11     -0.12565970142631738
12     -0.1232746296937946
13     -0.12070286940533421
14     -0.11794779254380222
15     -0.11501340720839377
16     -0.11190444660663754
17     -0.10862645656010668
18     -0.10518588003577069
19     -0.10159013709108944
20     -0.09784769851317887
21     -0.09396815134434172
22     -0.08996225442832308
23     -0.0858419820906732
24     -0.08162055380125385
25     -0.07731244723735138
26     -0.07293339422004164
27     -0.06850035859679163
28     -0.06403149498008597
29     -0.059546087427086204
30     -0.055064467381252646
31     -0.05060791049298903
32     -0.046198512283364516
33     -0.04185904301418983
34     -0.03761278257142176
35     -0.03348333682265742
36     -0.029494437579350087
37     -0.025669727594070536
38     -0.02203253323054862
39     -0.01860562813315964
40     -0.015410991615208647
41     -0.012469565817069475
42     -0.009801015931946017
43     -0.007423497945347782
44     -0.005353438368570091
45     -0.0036053303566763637
46     -0.002191550365820071
47     -0.0011221991781135204
48     -0.00040497071280129015
49     -4.505127958494185e-05
50     -4.5051279584395416e-05
51     -0.00040497071279965426
52     -0.0011221991781108097
53     -0.002191550365816303
54     -0.003605330356671568
55     -0.005353438368564303
56     -0.007423497945341033
57     -0.009801015931938354
58     -0.012469565817060968
59     -0.015410991615199357
60     -0.018605628133149615
61     -0.02203253323053794
62     -0.025669727594059246
63     -0.029494437579338312
64     -0.033483336822645184
65     -0.037612782571409105
66     -0.041859043014176874
67     -0.04619851228335132
68     -0.050607910492975694
69     -0.055064467381239206
70     -0.0595460874270727
71     -0.06403149498007239
72     -0.06850035859677811
73     -0.07293339422002823
74     -0.07731244723733807
75     -0.08162055380124073
76     -0.08584198209066023
77     -0.08996225442831036
78     -0.09396815134432923
79     -0.09784769851316664
80     -0.10159013709107752
81     -0.10518588003575909
82     -0.10862645656009537
83     -0.11190444660662659
84     -0.11501340720838314
85     -0.11794779254379192
86     -0.12070286940532418
87     -0.12327462969378497
88     -0.12565970142630808
89     -0.12785525961565516
90     -0.12985893825159836
91     -0.1316687444928403
92     -0.133282976067188
93     -0.1347001427976228
94     -0.13591889309648705
95     -0.13693794624523956
96     -0.1377560312604422
97     -0.13837183319615876
98     -0.1387839477757495
99     -0.1389908453551268
