#Bead    Energy (eV)
0     -0.17722555686421318
1     -0.17365811144921703
2     -0.1699465473981877
3     -0.16610454249131132
4     -0.16214470882246051
5     -0.15807874180721032
6     -0.15391756272072177
7     -0.14967141375848822
8     -0.14535003879350242
9     -0.14096277979383612
10     -0.13651873432780212
11     -0.13202682325957832
12     -0.12749594149086996
13     -0.12293502744456705
14     -0.11835311723640334
15     -0.11375944172864991
16     -0.10916343842877727
17     -0.10457478451659057
18     -0.10000337830831184
19     -0.0954593414988257
20     -0.09095297769259401
21     -0.08649472141247659
22     -0.08209507880287396
23     -0.07776083408089955
24     -0.07348444741061044
25     -0.06925613696755861
26     -0.06506782276964865
27     -0.06091330249079339
28     -0.05678840074073953
29     -0.05269112041904985
30     -0.048621839963678345
31     -0.04458350258264043
32     -0.040581820430813674
33     -0.03662551075808182
34     -0.03273065707855085
35     -0.028931624834844346
36     -0.025265364894315058
37     -0.021766309930190665
38     -0.018465882109818407
39     -0.015391977937891956
40     -0.012568537629078372
41     -0.010015153868409125
42     -0.007746756590734013
43     -0.0057733675020955125
44     -0.004099967305709236
45     -0.0027250565444220526
46     -0.001639031582562908
47     -0.000832621365585834
48     -0.00029887528227522174
49     -3.316019536600155e-05
50     -3.316019536564865e-05
51     -0.00029887528227416226
52     -0.000832621365584072
53     -0.0016390315825604556
54     -0.002725056544418908
55     -0.0040999673057054015
56     -0.005773367502091008
57     -0.007746756590728872
58     -0.01001515386840336
59     -0.012568537629072013
60     -0.01539197793788502
61     -0.018465882109810903
62     -0.021766309930182685
63     -0.025265364894306648
64     -0.028931624834835582
65     -0.0327306570785417
66     -0.036625510758072376
67     -0.040581820430804
68     -0.04458350258263065
69     -0.0486218399636685
70     -0.05269112041903991
71     -0.05678840074072968
72     -0.06091330249078362
73     -0.0650678227696391
74     -0.06925613696754941
75     -0.07348444741060148
76     -0.077760834080891
77     -0.08209507880286594
78     -0.08649472141246908
79     -0.09095297769258708
80     -0.09545934149881932
81     -0.10000337830830597
82     -0.10457478451658517
83     -0.10916343842877245
84     -0.11375944172864565
85     -0.11835311723639973
86     -0.1229350274445641
87     -0.1274959414908676
88     -0.1320268232595765
89     -0.136518734327801
90     -0.14096277979383573
91     -0.14535003879350275
92     -0.14967141375848927
93     -0.1539175627207234
94     -0.15807874180721243
95     -0.162144708822463
96     -0.16610454249131415
97     -0.1699465473981909
98     -0.17365811144922033
99     -0.17722555686421643
