#Bead    Energy (eV)
0     -0.1361632265870634
1     -0.13596569327887065
2     -0.1355706938284771
3     -0.13497837019083622
4     -0.1341889542986979
5     -0.1332027907014545
6     -0.13202036647616636
7     -0.13064234816626272
8     -0.1290696254307775
9     -0.1273033610073268
10     -0.12534504650464856
11     -0.12319656344503406
12     -0.12086024887345548
13     -0.1183389647391846
14     -0.11563617013829162
15     -0.11275599538327795
16     -0.10970331674151396
17     -0.10648383056001934
18     -0.10310412537396582
19     -0.09957175048421346
20     -0.09589527938985092
21     -0.09208436638018999
22     -0.08814979453236313
23     -0.08410351333115355
24     -0.07995866413246842
25     -0.07572959173620486
26     -0.07143184042287762
27     -0.06708213294520682
28     -0.0626983311537336
29     -0.058299377175899926
30     -0.05390521436070317
31     -0.04953668754395564
32     -0.04521542257820658
33     -0.04096368550023382
34     -0.03680422216918969
35     -0.03276007968939079
36     -0.028854411420857626
37     -0.02511026786389158
38     -0.02155037616590167
39     -0.01819691142335588
40     -0.015071263323085882
41     -0.012193801969792006
42     -0.009583646966389935
43     -0.007258443938770039
44     -0.005234152717270669
45     -0.0035248512976542696
46     -0.002142559502323287
47     -0.001097085949671441
48     -0.0003959015217504177
49     -4.404200784042528e-05
50     -4.404200784042197e-05
51     -0.0003959015217504077
52     -0.001097085949671424
53     -0.0021425595023232646
54     -0.0035248512976542427
55     -0.005234152717270635
56     -0.007258443938769999
57     -0.009583646966389888
58     -0.012193801969791957
59     -0.01507126332308582
60     -0.01819691142335582
61     -0.021550376165901608
62     -0.025110267863891506
63     -0.028854411420857557
64     -0.03276007968939072
65     -0.03680422216918961
66     -0.04096368550023375
67     -0.04521542257820648
68     -0.04953668754395556
69     -0.053905214360703085
70     -0.05829937717589984
71     -0.06269833115373355
72     -0.06708213294520673
73     -0.07143184042287753
74     -0.07572959173620479
75     -0.07995866413246837
76     -0.08410351333115348
77     -0.08814979453236309
78     -0.09208436638018992
79     -0.09589527938985087
80     -0.09957175048421345
81     -0.10310412537396578
82     -0.10648383056001931
83     -0.10970331674151396
84     -0.11275599538327788
85     -0.1156361701382916
86     -0.1183389647391846
87     -0.12086024887345544
88     -0.12319656344503405
89     -0.12534504650464856
90     -0.12730336100732675
91     -0.12906962543077746
92     -0.1306423481662627
93     -0.13202036647616636
94     -0.1332027907014545
95     -0.1341889542986978
96     -0.13497837019083622
97     -0.13557069382847708
98     -0.13596569327887062
99     -0.13616322658706337
