#Bead    Energy (eV)
0     -0.21335916030992766
1     -0.20646338255739027
2     -0.19929428822189416
3     -0.1919109157290977
4     -0.18437013191051357
5     -0.17672589146727233
6     -0.16902874378486293
7     -0.16132544301693916
8     -0.15365891872864493
9     -0.14606819045392733
10     -0.13858852361363772
11     -0.13125145973846725
12     -0.12408509866791198
13     -0.11711424304413855
14     -0.11036054812952796
15     -0.10384280357386358
16     -0.09757705249046358
17     -0.09157678919896697
18     -0.08585307219080704
19     -0.08041471514813818
20     -0.0752684132803744
21     -0.07041888281351254
22     -0.06586901622017871
23     -0.06161219532007506
24     -0.05761067795182433
25     -0.05382191231418802
26     -0.05020682378414864
27     -0.046730014603107085
28     -0.04335991549945066
29     -0.04006897079116358
30     -0.03683396400942414
31     -0.033636388228839756
32     -0.03046292293342464
33     -0.02730606488583836
34     -0.024173101205101584
35     -0.021107795793004817
36     -0.01815845650476167
37     -0.015367786483807797
38     -0.012772130318664402
39     -0.010400759006096385
40     -0.008275405268913611
41     -0.006409958268864382
42     -0.004810383572587935
43     -0.0034748490671107843
44     -0.0023941247857156844
45     -0.001549782268117788
46     -0.0009122601953465968
47     -0.00045587319857447845
48     -0.00016183625518160423
49     -1.7855952085500897e-05
50     -1.7855952085526907e-05
51     -0.00016183625518168188
52     -0.00045587319857460763
53     -0.0009122601953467799
54     -0.001549782268118023
55     -0.0023941247857159637
56     -0.003474849067111124
57     -0.0048103835725883245
58     -0.006409958268864816
59     -0.008275405268914097
60     -0.010400759006096903
61     -0.01277213031866491
62     -0.01536778648380833
63     -0.01815845650476225
64     -0.021107795793005462
65     -0.024173101205102215
66     -0.027306064885838994
67     -0.030462922933425295
68     -0.03363638822884047
69     -0.03683396400942498
70     -0.04006897079116437
71     -0.043359915499451555
72     -0.04673001460310807
73     -0.05020682378414983
74     -0.053821912314189334
75     -0.0576106779518258
76     -0.061612195320076876
77     -0.06586901622018089
78     -0.07041888281351498
79     -0.07526841328037721
80     -0.08041471514814134
81     -0.08585307219081051
82     -0.09157678919897075
83     -0.09757705249046769
84     -0.10384280357386799
85     -0.11036054812953268
86     -0.1171142430441436
87     -0.1240850986679173
88     -0.13125145973847285
89     -0.1385885236136436
90     -0.1460681904539335
91     -0.15365891872865148
92     -0.1613254430169461
93     -0.1690287437848701
94     -0.1767258914672796
95     -0.18437013191052093
96     -0.19191091572910496
97     -0.19929428822190134
98     -0.2064633825573973
99     -0.21335916030993438
