#Bead    Energy (eV)
0     -0.13628207990365493
1     -0.13608443685391997
2     -0.135689217438166
3     -0.1350965625777493
4     -0.1343067025750469
5     -0.13331997973109083
6     -0.13213687825960765
7     -0.13075806125246306
8     -0.12918441437852257
9     -0.12741709591804706
10     -0.125457592647174
11     -0.12330778099140424
12     -0.12096999276335334
13     -0.11844708468887888
14     -0.11574251080812697
15     -0.1128603967157182
16     -0.10980561447949061
17     -0.10658385695283897
18     -0.10320171007526163
19     -0.09966672164337746
20     -0.09598746493505057
21     -0.0921735954874703
22     -0.08823589927148648
23     -0.08418633047478052
24     -0.08003803711109146
25     -0.07580537271699457
26     -0.07150389248640769
27     -0.06715033232994327
28     -0.06276256953430669
29     -0.058359563937649774
30     -0.05396127882993706
31     -0.04958858113091807
32     -0.0452631207880879
33     -0.04100718976676311
34     -0.03684356146559196
35     -0.03279531187284167
36     -0.02888562426910041
37     -0.025137579766424556
38     -0.02157393643711051
39     -0.018216900211109315
40     -0.015087891093526084
41     -0.012207308557186608
42     -0.009594300185776809
43     -0.00726653776848856
44     -0.0052400050680704875
45     -0.003528801394620751
46     -0.0021449649150602017
47     -0.0010983193147405838
48     -0.00039634700900008753
49     -4.409158870034569e-05
50     -4.4091588700355515e-05
51     -0.0003963470090001171
52     -0.0010983193147406326
53     -0.002144964915060269
54     -0.003528801394620838
55     -0.005240005068070595
56     -0.007266537768488685
57     -0.009594300185776955
58     -0.012207308557186774
59     -0.015087891093526274
60     -0.018216900211109506
61     -0.02157393643711074
62     -0.025137579766424806
63     -0.02888562426910067
64     -0.032795311872841945
65     -0.036843561465592256
66     -0.04100718976676344
67     -0.045263120788088244
68     -0.04958858113091843
69     -0.05396127882993746
70     -0.05835956393765014
71     -0.0627625695343071
72     -0.06715033232994372
73     -0.07150389248640818
74     -0.075805372716995
75     -0.08003803711109193
76     -0.08418633047478102
77     -0.08823589927148698
78     -0.09217359548747085
79     -0.09598746493505114
80     -0.09966672164337799
81     -0.10320171007526223
82     -0.10658385695283955
83     -0.10980561447949122
84     -0.1128603967157188
85     -0.11574251080812761
86     -0.11844708468887961
87     -0.12096999276335398
88     -0.12330778099140499
89     -0.1254575926471747
90     -0.12741709591804778
91     -0.12918441437852335
92     -0.13075806125246384
93     -0.13213687825960846
94     -0.1333199797310916
95     -0.13430670257504768
96     -0.13509656257775005
97     -0.13568921743816678
98     -0.13608443685392071
99     -0.1362820799036557
