#Bead    Energy (eV)
0     -0.24169629082040972
1     -0.23313681304397155
2     -0.223423816009228
3     -0.21282499997867288
4     -0.20158653329050344
5     -0.18993147881467495
6     -0.17805911750685702
7     -0.16614479639911797
8     -0.15434063902103476
9     -0.1427763547455005
10     -0.1315605874510179
11     -0.12078214005618208
12     -0.11051168772813712
13     -0.10080329076462267
14     -0.09169593846273494
15     -0.08321531628141599
16     -0.07537529569694142
17     -0.06817953870507638
18     -0.06162294381528088
19     -0.055693183894219456
20     -0.05037210285777654
21     -0.04563708856498814
22     -0.041462417117240566
23     -0.03780958124906961
24     -0.034599178587181555
25     -0.031749671566541196
26     -0.02918835888191611
27     -0.026850699656549182
28     -0.024679656367076863
29     -0.02262521903045681
30     -0.020644285336170933
31     -0.0187007917837257
32     -0.01676619724124885
33     -0.01482039555579094
34     -0.012863450544931763
35     -0.010942463912786667
36     -0.009109197245304932
37     -0.007406768966831921
38     -0.005868711158784458
39     -0.00451828377902252
40     -0.003368305409022303
41     -0.0024213850298144116
42     -0.0016706256008873993
43     -0.0011007683128496097
44     -0.0006898339474431031
45     -0.00040905815132716885
46     -0.00022331351705694088
47     -0.00010510869066807432
48     -3.579145507588358e-05
49     -3.865520838945219e-06
50     -3.865520839120946e-06
51     -3.579145507641712e-05
52     -0.00010510869066898504
53     -0.0002233135170582623
54     -0.0004090581513289455
55     -0.000689833947445385
56     -0.0011007683128524631
57     -0.0016706256008908714
58     -0.0024213850298185195
59     -0.0033683054090270664
60     -0.004518283779027925
61     -0.00586871115879047
62     -0.007406768966838513
63     -0.009109197245312069
64     -0.010942463912794303
65     -0.012863450544939798
66     -0.014820395555799339
67     -0.016766197241257517
68     -0.018700791783734606
69     -0.02064428533617998
70     -0.022625219030465937
71     -0.024679656367086078
72     -0.02685069965655852
73     -0.02918835888192564
74     -0.03174967156655083
75     -0.03459917858719135
76     -0.037809581249079655
77     -0.04146241711725089
78     -0.04563708856499874
79     -0.0503721028577875
80     -0.05569318389423081
81     -0.06162294381529263
82     -0.06817953870508861
83     -0.07537529569695414
84     -0.0832153162814291
85     -0.09169593846274848
86     -0.10080329076463654
87     -0.11051168772815116
88     -0.12078214005619635
89     -0.13156058745103227
90     -0.1427763547455148
91     -0.15434063902104891
92     -0.166144796399132
93     -0.17805911750687056
94     -0.18993147881468808
95     -0.2015865332905158
96     -0.2128249999786844
97     -0.22342381600923858
98     -0.23313681304398085
99     -0.2416962908204176
