#Bead    Energy (eV)
0     -0.1361579905989744
1     -0.13596046139921208
2     -0.13556547020563248
3     -0.13497315905249055
4     -0.13418375998997198
5     -0.13319761772121172
6     -0.13201521951086811
7     -0.1306372321207478
8     -0.12906454545533033
9     -0.12729832252040002
10     -0.12534005521060515
11     -0.12319162534628146
12     -0.12085537027635983
13     -0.11833415225317583
14     -0.11563143066760732
15     -0.11275133611084277
16     -0.10969874510451628
17     -0.10647935421682833
18     -0.10309975216213232
19     -0.09956748836941688
20     -0.0958911364057929
21     -0.09208035055959278
22     -0.0881459138294058
23     -0.08409977553587053
24     -0.07995507677783874
25     -0.07572616199887448
26     -0.07142857501867401
27     -0.0670790380208234
28     -0.06269541217616924
29     -0.05829663882143422
30     -0.05390266040536029
31     -0.04953432075755106
32     -0.04521324462417587
33     -0.04096169684350161
34     -0.03680242199434319
35     -0.032758465831374255
36     -0.028852980310290408
37     -0.02510901448894014
38     -0.021549294052396646
39     -0.01819599263454714
40     -0.015070498480073354
41     -0.012193180293265753
42     -0.009583156339869704
43     -0.007258070993063027
44     -0.00523388293538061
45     -0.003524669138889671
46     -0.002142448543883019
47     -0.0010970290435477073
48     -0.0003958809643971353
49     -4.403971972304208e-05
50     -4.4039719723042445e-05
51     -0.0003958809643971364
52     -0.0010970290435477093
53     -0.0021424485438830214
54     -0.003524669138889673
55     -0.005233882935380613
56     -0.007258070993063034
57     -0.009583156339869715
58     -0.012193180293265762
59     -0.015070498480073363
60     -0.01819599263454714
61     -0.021549294052396653
62     -0.02510901448894015
63     -0.028852980310290415
64     -0.03275846583137427
65     -0.03680242199434319
66     -0.04096169684350161
67     -0.04521324462417588
68     -0.04953432075755106
69     -0.05390266040536029
70     -0.05829663882143422
71     -0.06269541217616924
72     -0.06707903802082342
73     -0.07142857501867406
74     -0.07572616199887448
75     -0.07995507677783877
76     -0.08409977553587053
77     -0.08814591382940584
78     -0.09208035055959278
79     -0.0958911364057929
80     -0.09956748836941688
81     -0.10309975216213232
82     -0.10647935421682833
83     -0.10969874510451633
84     -0.11275133611084277
85     -0.11563143066760732
86     -0.11833415225317583
87     -0.12085537027635983
88     -0.12319162534628146
89     -0.12534005521060515
90     -0.12729832252040002
91     -0.12906454545533033
92     -0.1306372321207478
93     -0.13201521951086811
94     -0.13319761772121172
95     -0.134183759989972
96     -0.13497315905249055
97     -0.13556547020563248
98     -0.13596046139921208
99     -0.1361579905989744
