#Bead    Energy (eV)
0     -0.19192206165454326
1     -0.17030748329785458
2     -0.12398872774356413
3     -0.05946067225155134
4     -0.007778725088433543
5     -0.007778725088433505
6     -0.05946067225155121
7     -0.123988727743564
8     -0.1703074832978545
9     -0.19192206165454326
