3
# CELL(abcABC):   25.29166    25.29166    25.29166    90.00000    90.00000    90.00000  Step:           0  Bead:       0 x_centroid{atomic_unit}  cell{atomic_unit}
       O  1.02130e+00 -1.84220e+00 -4.09276e-01
       H  3.47444e-01 -2.37735e+00 -2.03854e+00
       H  7.99951e-02 -3.68232e-01  1.74386e-01
3
# CELL(abcABC):   25.29166    25.29166    25.29166    90.00000    90.00000    90.00000  Step:           1  Bead:       0 x_centroid{atomic_unit}  cell{atomic_unit}
       O  1.00976e+00 -1.83505e+00 -4.16175e-01
       H  3.50245e-01 -2.35996e+00 -2.01225e+00
       H  8.87367e-02 -3.92778e-01  1.54989e-01
3
# CELL(abcABC):   25.29166    25.29166    25.29166    90.00000    90.00000    90.00000  Step:           2  Bead:       0 x_centroid{atomic_unit}  cell{atomic_unit}
       O  1.01824e+00 -1.84021e+00 -4.10980e-01
       H  3.45298e-01 -2.35136e+00 -2.00808e+00
       H  8.52001e-02 -3.96219e-01  1.45624e-01
3
# CELL(abcABC):   25.29166    25.29166    25.29166    90.00000    90.00000    90.00000  Step:           3  Bead:       0 x_centroid{atomic_unit}  cell{atomic_unit}
       O  1.04120e+00 -1.85143e+00 -3.93393e-01
       H  3.30212e-01 -2.32509e+00 -1.99532e+00
       H  7.73341e-02 -4.11264e-01  1.15281e-01
3
# CELL(abcABC):   25.29166    25.29166    25.29166    90.00000    90.00000    90.00000  Step:           4  Bead:       0 x_centroid{atomic_unit}  cell{atomic_unit}
       O  1.04187e+00 -1.85380e+00 -3.95512e-01
       H  3.30746e-01 -2.32391e+00 -1.99305e+00
       H  7.61298e-02 -4.10077e-01  1.15128e-01
3
# CELL(abcABC):   25.29166    25.29166    25.29166    90.00000    90.00000    90.00000  Step:           5  Bead:       0 x_centroid{atomic_unit}  cell{atomic_unit}
       O  1.04012e+00 -1.85286e+00 -3.96737e-01
       H  3.31824e-01 -2.32571e+00 -1.99386e+00
       H  7.67997e-02 -4.09223e-01  1.17162e-01
3
# CELL(abcABC):   25.29166    25.29166    25.29166    90.00000    90.00000    90.00000  Step:           6  Bead:       0 x_centroid{atomic_unit}  cell{atomic_unit}
       O  1.04017e+00 -1.85288e+00 -3.96695e-01
       H  3.31792e-01 -2.32567e+00 -1.99386e+00
       H  7.67772e-02 -4.09229e-01  1.17123e-01
3
# CELL(abcABC):   25.29166    25.29166    25.29166    90.00000    90.00000    90.00000  Step:           7  Bead:       0 x_centroid{atomic_unit}  cell{atomic_unit}
       O  1.04017e+00 -1.85288e+00 -3.96695e-01
       H  3.31792e-01 -2.32567e+00 -1.99386e+00
       H  7.67772e-02 -4.09230e-01  1.17122e-01
