3
# CELL(abcABC):   25.29166    25.29166    25.29166    90.00000    90.00000    90.00000  Step:           0  Bead:       0 f_centroid{atomic_unit}  cell{atomic_unit}
       O -7.34145e-03  4.55046e-03 -4.38801e-03
       H  1.78151e-03  1.10616e-02  1.67248e-02
       H  5.55994e-03 -1.56120e-02 -1.23368e-02
3
# CELL(abcABC):   25.29166    25.29166    25.29166    90.00000    90.00000    90.00000  Step:           1  Bead:       0 f_centroid{atomic_unit}  cell{atomic_unit}
       O  8.65905e-03 -5.28624e-03  5.27970e-03
       H -4.51049e-03  4.79162e-03 -1.26819e-04
       H -4.14856e-03  4.94623e-04 -5.15288e-03
3
# CELL(abcABC):   25.29166    25.29166    25.29166    90.00000    90.00000    90.00000  Step:           2  Bead:       0 f_centroid{atomic_unit}  cell{atomic_unit}
       O  5.88193e-03 -3.36887e-03  3.87213e-03
       H -3.22646e-03  3.68346e-03  2.38681e-04
       H -2.65547e-03 -3.14589e-04 -4.11081e-03
3
# CELL(abcABC):   25.29166    25.29166    25.29166    90.00000    90.00000    90.00000  Step:           3  Bead:       0 f_centroid{atomic_unit}  cell{atomic_unit}
       O -1.78443e-04 -2.42356e-03 -3.36867e-03
       H  1.28067e-03  5.61424e-04  2.50993e-03
       H -1.10223e-03  1.86214e-03  8.58741e-04
3
# CELL(abcABC):   25.29166    25.29166    25.29166    90.00000    90.00000    90.00000  Step:           4  Bead:       0 f_centroid{atomic_unit}  cell{atomic_unit}
       O -5.68962e-04  2.49666e-04 -4.72647e-04
       H  3.31038e-04 -2.09095e-04  1.92833e-04
       H  2.37924e-04 -4.05707e-05  2.79814e-04
3
# CELL(abcABC):   25.29166    25.29166    25.29166    90.00000    90.00000    90.00000  Step:           5  Bead:       0 f_centroid{atomic_unit}  cell{atomic_unit}
       O  2.86232e-05 -1.01077e-05  2.69346e-05
       H -1.63888e-05 -6.88971e-07 -2.37584e-05
       H -1.22344e-05  1.07967e-05 -3.17623e-06
3
# CELL(abcABC):   25.29166    25.29166    25.29166    90.00000    90.00000    90.00000  Step:           6  Bead:       0 f_centroid{atomic_unit}  cell{atomic_unit}
       O -3.79118e-07  1.13646e-07 -3.82795e-07
       H  1.92332e-07  2.71502e-07  6.17891e-07
       H  1.86786e-07 -3.85147e-07 -2.35096e-07
3
# CELL(abcABC):   25.29166    25.29166    25.29166    90.00000    90.00000    90.00000  Step:           7  Bead:       0 f_centroid{atomic_unit}  cell{atomic_unit}
       O  2.76911e-09 -1.97995e-10  3.60959e-09
       H -1.24095e-09 -5.60232e-09 -8.94321e-09
       H -1.52816e-09  5.80032e-09  5.33362e-09
