#Bead    Energy (eV)
0     -0.05252333555247917
1     -0.043648956583381755
2     -0.028443377548957666
3     -0.012133848923224175
4     -0.0014717127613729677
5     -0.0014717127613729653
6     -0.012133848923224175
7     -0.028443377548957673
8     -0.04364895658338175
9     -0.05252333555247918
