3
# CELL(abcABC):  80.  80.  80.  90.  90.  90.  Step:  1991  Bead:  0 positions{angstrom}  cell{angstrom}
O  1.19893e+01  2.81934e+01  2.24451e+01
H  1.23672e+01  2.73342e+01  2.28393e+01
H  1.25179e+01  2.88637e+01  2.26282e+01
3
# CELL(abcABC):  80.  80.  80.  90.  90.  90.  Step:  1992  Bead:  0 positions{angstrom}  cell{angstrom}
O  1.19881e+01  2.81977e+01  2.24496e+01
H  1.23571e+01  2.73181e+01  2.28340e+01
H  1.25135e+01  2.88605e+01  2.26420e+01
3
# CELL(abcABC):  80.  80.  80.  90.  90.  90.  Step:  1993  Bead:  0 positions{angstrom}  cell{angstrom}
O  1.19868e+01  2.81995e+01  2.24529e+01
H  1.23447e+01  2.73083e+01  2.28258e+01
H  1.25194e+01  2.88662e+01  2.26567e+01
3
# CELL(abcABC):  80.  80.  80.  90.  90.  90.  Step:  1994  Bead:  0 positions{angstrom}  cell{angstrom}
O  1.19855e+01  2.81987e+01  2.24550e+01
H  1.23309e+01  2.73043e+01  2.28144e+01
H  1.25346e+01  2.88790e+01  2.26720e+01
3
# CELL(abcABC):  80.  80.  80.  90.  90.  90.  Step:  1995  Bead:  0 positions{angstrom}  cell{angstrom}
O  1.19842e+01  2.81957e+01  2.24561e+01
H  1.23164e+01  2.73054e+01  2.27995e+01
H  1.25563e+01  2.88952e+01  2.26869e+01
3
# CELL(abcABC):  80.  80.  80.  90.  90.  90.  Step:  1996  Bead:  0 positions{angstrom}  cell{angstrom}
O  1.19832e+01  2.81908e+01  2.24562e+01
H  1.23023e+01  2.73104e+01  2.27812e+01
H  1.25812e+01  2.89105e+01  2.27006e+01
3
# CELL(abcABC):  80.  80.  80.  90.  90.  90.  Step:  1997  Bead:  0 positions{angstrom}  cell{angstrom}
O  1.19826e+01  2.81847e+01  2.24556e+01
H  1.22895e+01  2.73178e+01  2.27594e+01
H  1.26060e+01  2.89210e+01  2.27120e+01
3
# CELL(abcABC):  80.  80.  80.  90.  90.  90.  Step:  1998  Bead:  0 positions{angstrom}  cell{angstrom}
O  1.19824e+01  2.81778e+01  2.24543e+01
H  1.22792e+01  2.73257e+01  2.27347e+01
H  1.26282e+01  2.89239e+01  2.27207e+01
3
# CELL(abcABC):  80.  80.  80.  90.  90.  90.  Step:  1999  Bead:  0 positions{angstrom}  cell{angstrom}
O  1.19825e+01  2.81706e+01  2.24527e+01
H  1.22722e+01  2.73322e+01  2.27074e+01
H  1.26460e+01  2.89176e+01  2.27265e+01
3
# CELL(abcABC):  80.  80.  80.  90.  90.  90.  Step:  2000  Bead:  0 positions{angstrom}  cell{angstrom}
O  1.19830e+01  2.81637e+01  2.24510e+01
H  1.22693e+01  2.73352e+01  2.26781e+01
H  1.26580e+01  2.89011e+01  2.27297e+01
