3
# CELL(abcABC):  80.  80.  80.  90.  90.  90.  Step:  1991  Bead:  3 positions{angstrom}  cell{angstrom}
O  1.19658e+01  2.81815e+01  2.24755e+01
H  1.22849e+01  2.73520e+01  2.26427e+01
H  1.25505e+01  2.88301e+01  2.27737e+01
3
# CELL(abcABC):  80.  80.  80.  90.  90.  90.  Step:  1992  Bead:  3 positions{angstrom}  cell{angstrom}
O  1.19641e+01  2.81853e+01  2.24734e+01
H  1.23021e+01  2.73563e+01  2.26457e+01
H  1.25521e+01  2.87965e+01  2.27722e+01
3
# CELL(abcABC):  80.  80.  80.  90.  90.  90.  Step:  1993  Bead:  3 positions{angstrom}  cell{angstrom}
O  1.19627e+01  2.81881e+01  2.24708e+01
H  1.23235e+01  2.73571e+01  2.26529e+01
H  1.25599e+01  2.87665e+01  2.27700e+01
3
# CELL(abcABC):  80.  80.  80.  90.  90.  90.  Step:  1994  Bead:  3 positions{angstrom}  cell{angstrom}
O  1.19615e+01  2.81899e+01  2.24678e+01
H  1.23475e+01  2.73555e+01  2.26631e+01
H  1.25755e+01  2.87430e+01  2.27684e+01
3
# CELL(abcABC):  80.  80.  80.  90.  90.  90.  Step:  1995  Bead:  3 positions{angstrom}  cell{angstrom}
O  1.19606e+01  2.81902e+01  2.24644e+01
H  1.23723e+01  2.73527e+01  2.26749e+01
H  1.25991e+01  2.87274e+01  2.27679e+01
3
# CELL(abcABC):  80.  80.  80.  90.  90.  90.  Step:  1996  Bead:  3 positions{angstrom}  cell{angstrom}
O  1.19602e+01  2.81893e+01  2.24609e+01
H  1.23960e+01  2.73500e+01  2.26868e+01
H  1.26289e+01  2.87195e+01  2.27684e+01
3
# CELL(abcABC):  80.  80.  80.  90.  90.  90.  Step:  1997  Bead:  3 positions{angstrom}  cell{angstrom}
O  1.19605e+01  2.81870e+01  2.24572e+01
H  1.24169e+01  2.73484e+01  2.26975e+01
H  1.26619e+01  2.87179e+01  2.27688e+01
3
# CELL(abcABC):  80.  80.  80.  90.  90.  90.  Step:  1998  Bead:  3 positions{angstrom}  cell{angstrom}
O  1.19618e+01  2.81836e+01  2.24536e+01
H  1.24333e+01  2.73482e+01  2.27057e+01
H  1.26941e+01  2.87209e+01  2.27680e+01
3
# CELL(abcABC):  80.  80.  80.  90.  90.  90.  Step:  1999  Bead:  3 positions{angstrom}  cell{angstrom}
O  1.19642e+01  2.81792e+01  2.24502e+01
H  1.24440e+01  2.73496e+01  2.27103e+01
H  1.27220e+01  2.87265e+01  2.27652e+01
3
# CELL(abcABC):  80.  80.  80.  90.  90.  90.  Step:  2000  Bead:  3 positions{angstrom}  cell{angstrom}
O  1.19677e+01  2.81743e+01  2.24470e+01
H  1.24484e+01  2.73523e+01  2.27106e+01
H  1.27428e+01  2.87334e+01  2.27597e+01
