3
# CELL(abcABC):  80.  80.  80.  90.  90.  90.  Step:  1991  Bead:  2 positions{angstrom}  cell{angstrom}
O  1.19883e+01  2.81912e+01  2.24527e+01
H  1.23486e+01  2.74017e+01  2.27501e+01
H  1.26818e+01  2.87376e+01  2.26472e+01
3
# CELL(abcABC):  80.  80.  80.  90.  90.  90.  Step:  1992  Bead:  2 positions{angstrom}  cell{angstrom}
O  1.19879e+01  2.81898e+01  2.24509e+01
H  1.23606e+01  2.73895e+01  2.27405e+01
H  1.26912e+01  2.87230e+01  2.26670e+01
3
# CELL(abcABC):  80.  80.  80.  90.  90.  90.  Step:  1993  Bead:  2 positions{angstrom}  cell{angstrom}
O  1.19871e+01  2.81880e+01  2.24490e+01
H  1.23707e+01  2.73737e+01  2.27308e+01
H  1.27012e+01  2.87155e+01  2.26868e+01
3
# CELL(abcABC):  80.  80.  80.  90.  90.  90.  Step:  1994  Bead:  2 positions{angstrom}  cell{angstrom}
O  1.19862e+01  2.81856e+01  2.24470e+01
H  1.23782e+01  2.73555e+01  2.27205e+01
H  1.27103e+01  2.87139e+01  2.27057e+01
3
# CELL(abcABC):  80.  80.  80.  90.  90.  90.  Step:  1995  Bead:  2 positions{angstrom}  cell{angstrom}
O  1.19851e+01  2.81828e+01  2.24452e+01
H  1.23828e+01  2.73367e+01  2.27093e+01
H  1.27172e+01  2.87166e+01  2.27229e+01
3
# CELL(abcABC):  80.  80.  80.  90.  90.  90.  Step:  1996  Bead:  2 positions{angstrom}  cell{angstrom}
O  1.19841e+01  2.81797e+01  2.24435e+01
H  1.23843e+01  2.73185e+01  2.26970e+01
H  1.27204e+01  2.87220e+01  2.27377e+01
3
# CELL(abcABC):  80.  80.  80.  90.  90.  90.  Step:  1997  Bead:  2 positions{angstrom}  cell{angstrom}
O  1.19832e+01  2.81763e+01  2.24421e+01
H  1.23827e+01  2.73023e+01  2.26836e+01
H  1.27191e+01  2.87287e+01  2.27497e+01
3
# CELL(abcABC):  80.  80.  80.  90.  90.  90.  Step:  1998  Bead:  2 positions{angstrom}  cell{angstrom}
O  1.19825e+01  2.81727e+01  2.24411e+01
H  1.23781e+01  2.72895e+01  2.26692e+01
H  1.27132e+01  2.87353e+01  2.27585e+01
3
# CELL(abcABC):  80.  80.  80.  90.  90.  90.  Step:  1999  Bead:  2 positions{angstrom}  cell{angstrom}
O  1.19820e+01  2.81690e+01  2.24405e+01
H  1.23709e+01  2.72809e+01  2.26539e+01
H  1.27028e+01  2.87412e+01  2.27641e+01
3
# CELL(abcABC):  80.  80.  80.  90.  90.  90.  Step:  2000  Bead:  2 positions{angstrom}  cell{angstrom}
O  1.19817e+01  2.81651e+01  2.24403e+01
H  1.23617e+01  2.72771e+01  2.26379e+01
H  1.26887e+01  2.87457e+01  2.27669e+01
