3
# CELL(abcABC):   35.23300    35.23300    35.23300    90.00000    90.00000    90.00000  Traj: positions{angstrom} Step:          11  Bead:       0 
       O  1.91256e-15 -1.90815e-02 -2.45668e-19
       H  7.59037e-01  5.38718e-01  7.25346e-20
       H -7.59037e-01  5.38718e-01 -1.29482e-20
