#Bead    Energy (eV)
0     0.07633813908845237
1     0.07993815435275359
2     0.0873832447059137
3     0.09884012387294204
4     0.11359729072786186
5     0.12899194663969443
6     0.14079673546292057
7     0.14608586326175726
8     0.14342508415573038
9     0.13502380813500559
10     0.12335299140664559
11     0.10997629362632595
12     0.09754155731894167
13     0.0877386892032888
14     0.08116002983587733
15     0.07788600094393765
