#Bead    Energy (eV)
0     0.07534249265191222
1     0.07903029912539845
2     0.08666367678379965
3     0.09842268087661127
4     0.11355434606037879
5     0.12924298041403828
6     0.14109517869918695
7     0.146140043383778
8     0.14303598618102292
9     0.13423453145300682
10     0.12212727591480516
11     0.10840238888887122
12     0.09580063281316811
13     0.08594397358858961
14     0.07935544881777104
15     0.07608283680265102
