#Bead    Energy (eV)
0     0.07616876475967577
1     0.07977262815370123
2     0.08722782891656054
3     0.0987055255809182
4     0.11349751279157776
5     0.12893720191932592
6     0.1407788079506119
7     0.14608518936328682
8     0.14341959972447607
9     0.1349997355984417
10     0.12330027818100008
11     0.1098916237176952
12     0.09743250000501565
13     0.08761405341172465
14     0.08102636597965586
15     0.07774818265397825
