1
# CELL(abcABC):  188.97261   188.97261   188.97261    90.00000    90.00000    90.00000  Step:           0  Bead:       0 p_centroid{atomic_unit}  cell{atomic_unit}
       H -2.01152e+00  5.30555e-01 -6.83934e-01
1
# CELL(abcABC):  188.97261   188.97261   188.97261    90.00000    90.00000    90.00000  Step:           1  Bead:       0 p_centroid{atomic_unit}  cell{atomic_unit}
       H -2.01784e+00  5.32220e-01 -6.86080e-01
1
# CELL(abcABC):  188.97261   188.97261   188.97261    90.00000    90.00000    90.00000  Step:           2  Bead:       0 p_centroid{atomic_unit}  cell{atomic_unit}
       H -1.98093e+00  5.22487e-01 -6.73533e-01
1
# CELL(abcABC):  188.97261   188.97261   188.97261    90.00000    90.00000    90.00000  Step:           3  Bead:       0 p_centroid{atomic_unit}  cell{atomic_unit}
       H -1.98794e+00  5.24336e-01 -6.75917e-01
1
# CELL(abcABC):  188.97261   188.97261   188.97261    90.00000    90.00000    90.00000  Step:           4  Bead:       0 p_centroid{atomic_unit}  cell{atomic_unit}
       H -2.00622e+00  5.29156e-01 -6.82131e-01
1
# CELL(abcABC):  188.97261   188.97261   188.97261    90.00000    90.00000    90.00000  Step:           5  Bead:       0 p_centroid{atomic_unit}  cell{atomic_unit}
       H -2.01120e+00  5.30470e-01 -6.83824e-01
1
# CELL(abcABC):  188.97261   188.97261   188.97261    90.00000    90.00000    90.00000  Step:           6  Bead:       0 p_centroid{atomic_unit}  cell{atomic_unit}
       H -2.01227e+00  5.30752e-01 -6.84188e-01
1
# CELL(abcABC):  188.97261   188.97261   188.97261    90.00000    90.00000    90.00000  Step:           7  Bead:       0 p_centroid{atomic_unit}  cell{atomic_unit}
       H -1.99034e+00  5.24967e-01 -6.76731e-01
1
# CELL(abcABC):  188.97261   188.97261   188.97261    90.00000    90.00000    90.00000  Step:           8  Bead:       0 p_centroid{atomic_unit}  cell{atomic_unit}
       H -1.99212e+00  5.25438e-01 -6.77340e-01
1
# CELL(abcABC):  188.97261   188.97261   188.97261    90.00000    90.00000    90.00000  Step:           9  Bead:       0 p_centroid{atomic_unit}  cell{atomic_unit}
       H -2.02537e+00  5.34205e-01 -6.88643e-01
