1
# CELL(abcABC):  188.97261   188.97261   188.97261    90.00000    90.00000    90.00000  Step:           0  Bead:       0 v_centroid{atomic_unit}  cell{atomic_unit}
       H -1.09479e-03  2.88759e-04 -3.72237e-04
1
# CELL(abcABC):  188.97261   188.97261   188.97261    90.00000    90.00000    90.00000  Step:           1  Bead:       0 v_centroid{atomic_unit}  cell{atomic_unit}
       H -1.09822e-03  2.89665e-04 -3.73405e-04
1
# CELL(abcABC):  188.97261   188.97261   188.97261    90.00000    90.00000    90.00000  Step:           2  Bead:       0 v_centroid{atomic_unit}  cell{atomic_unit}
       H -1.07814e-03  2.84368e-04 -3.66576e-04
1
# CELL(abcABC):  188.97261   188.97261   188.97261    90.00000    90.00000    90.00000  Step:           3  Bead:       0 v_centroid{atomic_unit}  cell{atomic_unit}
       H -1.08196e-03  2.85374e-04 -3.67873e-04
1
# CELL(abcABC):  188.97261   188.97261   188.97261    90.00000    90.00000    90.00000  Step:           4  Bead:       0 v_centroid{atomic_unit}  cell{atomic_unit}
       H -1.09190e-03  2.87998e-04 -3.71255e-04
1
# CELL(abcABC):  188.97261   188.97261   188.97261    90.00000    90.00000    90.00000  Step:           5  Bead:       0 v_centroid{atomic_unit}  cell{atomic_unit}
       H -1.09461e-03  2.88713e-04 -3.72177e-04
1
# CELL(abcABC):  188.97261   188.97261   188.97261    90.00000    90.00000    90.00000  Step:           6  Bead:       0 v_centroid{atomic_unit}  cell{atomic_unit}
       H -1.09519e-03  2.88866e-04 -3.72375e-04
1
# CELL(abcABC):  188.97261   188.97261   188.97261    90.00000    90.00000    90.00000  Step:           7  Bead:       0 v_centroid{atomic_unit}  cell{atomic_unit}
       H -1.08326e-03  2.85718e-04 -3.68317e-04
1
# CELL(abcABC):  188.97261   188.97261   188.97261    90.00000    90.00000    90.00000  Step:           8  Bead:       0 v_centroid{atomic_unit}  cell{atomic_unit}
       H -1.08423e-03  2.85974e-04 -3.68648e-04
1
# CELL(abcABC):  188.97261   188.97261   188.97261    90.00000    90.00000    90.00000  Step:           9  Bead:       0 v_centroid{atomic_unit}  cell{atomic_unit}
       H -1.10232e-03  2.90746e-04 -3.74800e-04
