1
# CELL(abcABC):  188.97261   188.97261   188.97261    90.00000    90.00000    90.00000  Step:           0  Bead:       0 forces{atomic_unit}  cell{atomic_unit}
       H  0.00000e+00  0.00000e+00  0.00000e+00
1
# CELL(abcABC):  188.97261   188.97261   188.97261    90.00000    90.00000    90.00000  Step:           1  Bead:       0 forces{atomic_unit}  cell{atomic_unit}
       H -1.02304e-04 -7.05953e-06 -3.41117e-06
1
# CELL(abcABC):  188.97261   188.97261   188.97261    90.00000    90.00000    90.00000  Step:           2  Bead:       0 forces{atomic_unit}  cell{atomic_unit}
       H -2.19661e-04 -1.09225e-05 -2.43243e-05
1
# CELL(abcABC):  188.97261   188.97261   188.97261    90.00000    90.00000    90.00000  Step:           3  Bead:       0 forces{atomic_unit}  cell{atomic_unit}
       H -3.23833e-04 -1.01333e-06 -3.76455e-05
1
# CELL(abcABC):  188.97261   188.97261   188.97261    90.00000    90.00000    90.00000  Step:           4  Bead:       0 forces{atomic_unit}  cell{atomic_unit}
       H -3.86956e-04  1.98302e-05 -5.97167e-05
1
# CELL(abcABC):  188.97261   188.97261   188.97261    90.00000    90.00000    90.00000  Step:           5  Bead:       0 forces{atomic_unit}  cell{atomic_unit}
       H -4.54670e-04  6.16338e-05 -1.06787e-04
1
# CELL(abcABC):  188.97261   188.97261   188.97261    90.00000    90.00000    90.00000  Step:           6  Bead:       0 forces{atomic_unit}  cell{atomic_unit}
       H -4.84583e-04  1.16214e-04 -1.45294e-04
1
# CELL(abcABC):  188.97261   188.97261   188.97261    90.00000    90.00000    90.00000  Step:           7  Bead:       0 forces{atomic_unit}  cell{atomic_unit}
       H -5.39323e-04  1.28612e-04 -1.88885e-04
1
# CELL(abcABC):  188.97261   188.97261   188.97261    90.00000    90.00000    90.00000  Step:           8  Bead:       0 forces{atomic_unit}  cell{atomic_unit}
       H -6.11468e-04  1.10616e-04 -2.25209e-04
1
# CELL(abcABC):  188.97261   188.97261   188.97261    90.00000    90.00000    90.00000  Step:           9  Bead:       0 forces{atomic_unit}  cell{atomic_unit}
       H -6.60545e-04  9.77284e-05 -2.92510e-04
