LAMMPS positionsfile from: None

123 atoms
3 atom types

0.0 14.34366105636912 xlo xhi
0.0 12.421974858089195 ylo yhi
0.0 11.71155021051156 zlo zhi
7.171830528184559 7.171830528184559 4.140658286029731 xy xz yz

Masses

1 24.305
2 26.9815385
3 28.085

Atoms

    1     3 0.0  0.0  0.0
    2     3 1.434366105636911  0.8281316572059456  2.3423100421023104
    3     3 2.868732211273822  1.6562633144118912  4.684620084204621
    4     3 4.303098316910733  2.484394971617837  7.026930126306931
    5     3 5.737464422547644  3.3125266288237825  9.369240168409242
    6     3 1.4343661056369108  2.4843949716178373  -2.111214149721182e-17
    7     1 2.8687322112738216  3.312526628823783  2.3423100421023104
    8     1 4.303098316910733  4.140658286029729  4.684620084204621
    9     1 5.737464422547643  4.968789943235674  7.02693012630693
   10     1 7.171830528184555  5.79692160044162  9.369240168409242
   11     1 2.8687322112738216  4.968789943235675  -4.222428299442364e-17
   12     1 4.303098316910733  5.796921600441621  2.3423100421023104
   13     2 5.737464422547643  6.625053257647566  4.684620084204621
   14     2 7.171830528184555  7.453184914853512  7.026930126306931
   15     2 8.606196633821465  8.281316572059458  9.369240168409242
   16     2 4.303098316910733  7.453184914853512  -6.333642449163546e-17
   17     2 5.737464422547643  8.281316572059458  2.3423100421023104
   18     2 7.171830528184555  9.109448229265404  4.684620084204622
   19     2 8.606196633821465  9.93757988647135  7.026930126306932
   20     2 10.040562739458377  10.765711543677293  9.36924016840924
   21     2 5.737464422547643  9.93757988647135  -8.444856598884729e-17
   22     2 7.171830528184555  10.765711543677297  2.3423100421023113
   23     2 8.606196633821465  11.593843200883242  4.684620084204621
   24     2 10.040562739458375  12.421974858089188  7.0269301263069295
   25     2 11.474928845095286  13.250106515295132  9.369240168409242
   26     2 2.868732211273822  3.399536717924645e-17  -2.111214149721182e-17
   27     2 4.3030983169107335  0.8281316572059456  2.3423100421023104
   28     2 5.737464422547644  1.656263314411891  4.684620084204621
   29     2 7.171830528184555  2.4843949716178373  7.02693012630693
   30     2 8.606196633821467  3.312526628823782  9.369240168409242
   31     2 4.303098316910733  2.4843949716178373  -4.222428299442364e-17
   32     2 5.737464422547644  3.312526628823783  2.3423100421023104
   33     2 7.171830528184555  4.140658286029729  4.684620084204621
   34     2 8.606196633821465  4.968789943235675  7.026930126306931
   35     2 10.040562739458377  5.79692160044162  9.369240168409243
   36     2 5.737464422547644  4.968789943235675  -6.333642449163546e-17
   37     2 7.171830528184555  5.79692160044162  2.3423100421023104
   38     2 8.606196633821465  6.625053257647566  4.68462008420462
   39     2 10.040562739458377  7.453184914853512  7.026930126306932
   40     2 11.474928845095288  8.281316572059456  9.369240168409242
   41     2 7.171830528184555  7.453184914853512  -8.444856598884729e-17
   42     2 8.606196633821465  8.281316572059458  2.3423100421023104
   43     2 10.040562739458377  9.109448229265404  4.684620084204621
   44     2 11.474928845095288  9.93757988647135  7.026930126306931
   45     2 12.909294950732198  10.765711543677295  9.369240168409242
   46     2 8.606196633821465  9.93757988647135  -6.183507571883425e-16
   47     2 10.040562739458377  10.765711543677297  2.342310042102311
   48     2 11.474928845095288  11.59384320088324  4.684620084204621
   49     2 12.909294950732198  12.421974858089186  7.0269301263069295
   50     2 14.34366105636911  13.250106515295132  9.369240168409242
   51     2 5.737464422547644  6.79907343584929e-17  -4.222428299442364e-17
   52     2 7.171830528184556  0.8281316572059455  2.3423100421023104
   53     2 8.606196633821467  1.6562633144118912  4.684620084204621
   54     2 10.040562739458377  2.4843949716178364  7.026930126306931
   55     2 11.474928845095288  3.312526628823782  9.369240168409242
   56     2 7.171830528184556  2.4843949716178373  -6.333642449163546e-17
   57     2 8.606196633821467  3.312526628823783  2.3423100421023104
   58     2 10.040562739458377  4.140658286029729  4.68462008420462
   59     2 11.474928845095288  4.968789943235674  7.026930126306932
   60     2 12.909294950732198  5.79692160044162  9.369240168409242
   61     2 8.606196633821465  4.968789943235675  -8.444856598884729e-17
   62     2 10.040562739458377  5.79692160044162  2.3423100421023104
   63     2 11.474928845095288  6.625053257647566  4.684620084204621
   64     2 12.9092949507322  7.453184914853511  7.026930126306933
   65     2 14.34366105636911  8.281316572059458  9.369240168409242
   66     2 10.040562739458377  7.453184914853512  -6.183507571883425e-16
   67     2 11.474928845095288  8.281316572059458  2.342310042102309
   68     2 12.9092949507322  9.109448229265404  4.684620084204621
   69     2 14.343661056369111  9.93757988647135  7.026930126306931
   70     2 15.77802716200602  10.765711543677295  9.36924016840924
   71     2 11.474928845095288  9.93757988647135  -1.2667284898327093e-16
   72     2 12.909294950732198  10.765711543677295  2.3423100421023104
   73     2 14.34366105636911  11.59384320088324  4.684620084204621
   74     2 15.77802716200602  12.421974858089186  7.026930126306931
   75     2 17.21239326764293  13.250106515295132  9.36924016840924
   76     2 8.606196633821467  -1.2005850338729196e-16  -6.333642449163546e-17
   77     2 10.040562739458379  0.8281316572059457  2.3423100421023104
   78     2 11.47492884509529  1.6562633144118906  4.684620084204622
   79     2 12.9092949507322  2.484394971617837  7.026930126306932
   80     2 14.343661056369111  3.3125266288237825  9.36924016840924
   81     2 10.040562739458377  2.4843949716178373  -8.444856598884729e-17
   82     2 11.474928845095288  3.312526628823783  2.3423100421023104
   83     2 12.9092949507322  4.140658286029728  4.684620084204621
   84     2 14.343661056369111  4.968789943235674  7.026930126306931
   85     2 15.77802716200602  5.79692160044162  9.369240168409242
   86     2 11.474928845095288  4.968789943235675  -6.183507571883425e-16
   87     2 12.9092949507322  5.796921600441621  2.342310042102309
   88     2 14.343661056369111  6.625053257647566  4.684620084204621
   89     2 15.77802716200602  7.453184914853512  7.026930126306931
   90     2 17.21239326764293  8.281316572059458  9.36924016840924
   91     2 12.909294950732198  7.453184914853512  -1.2667284898327093e-16
   92     2 14.34366105636911  8.281316572059458  2.3423100421023104
   93     2 15.77802716200602  9.109448229265404  4.684620084204623
   94     2 17.21239326764293  9.93757988647135  7.026930126306931
   95     2 18.646759373279842  10.765711543677295  9.36924016840924
   96     2 14.34366105636911  9.93757988647135  -5.231733604783246e-16
   97     2 15.77802716200602  10.765711543677295  2.3423100421023118
   98     2 17.21239326764293  11.59384320088324  4.684620084204622
   99     2 18.646759373279842  12.421974858089186  7.02693012630693
  100     2 20.081125478916753  13.250106515295132  9.369240168409242
  101     2 11.474928845095288  1.359814687169858e-16  -8.444856598884729e-17
  102     2 12.9092949507322  0.8281316572059448  2.3423100421023113
  103     2 14.343661056369111  1.656263314411891  4.684620084204621
  104     2 15.778027162006023  2.484394971617837  7.0269301263069295
  105     2 17.212393267642934  3.3125266288237825  9.369240168409242
  106     2 12.9092949507322  2.4843949716178377  -6.183507571883425e-16
  107     2 14.343661056369111  3.312526628823783  2.342310042102311
  108     2 15.778027162006023  4.140658286029729  4.684620084204621
  109     2 17.212393267642934  4.968789943235675  7.0269301263069295
  110     2 18.646759373279842  5.796921600441621  9.369240168409242
  111     2 14.343661056369111  4.968789943235675  -1.2667284898327093e-16
  112     2 15.77802716200602  5.79692160044162  2.3423100421023104
  113     2 17.212393267642934  6.625053257647566  4.684620084204621
  114     2 18.646759373279842  7.453184914853512  7.026930126306931
  115     2 20.081125478916753  8.281316572059458  9.36924016840924
  116     2 15.77802716200602  7.453184914853512  -5.231733604783246e-16
  117     2 17.21239326764293  8.281316572059456  2.3423100421023118
  118     2 18.646759373279842  9.109448229265404  4.684620084204622
  119     2 20.081125478916753  9.93757988647135  7.02693012630693
  120     2 21.515491584553665  10.765711543677295  9.369240168409242
  121     2 17.21239326764293  9.93757988647135  -1.6889713197769457e-16
  122     2 18.646759373279842  10.765711543677295  2.342310042102312
  123     2 20.081125478916753  11.59384320088324  4.684620084204621

