LAMMPS Description
 
         96  atoms
         64  bonds
         32  angles
 
           2  atom types
           1  bond types
           1  angle types
 
         0 35.233 xlo xhi
         0 35.233 ylo yhi
         0 35.233 zlo zhi
 
Masses
 
  1 15.9994
  2  1.0080
 
Bond Coeffs
 
  1    1.78    0.2708585 -0.327738785 0.231328959
 
Angle Coeffs
 
  1    0.0700  107.400000

Atoms
 
 1 1 1 -1.1128       3.84600000       5.67200001       1.32300000
 2 1 2 0.5564        2.97900000       7.05400000       0.85700000
 3 1 2 0.5564        5.52500001       5.69700001       0.45100000
 4 2 1 -1.1128      34.55700001      34.34100000       3.07800000
 5 2 2 0.5564       33.72200001      34.68900000       4.84000001
 6 2 2 0.5564       36.02900000      33.22000001       3.71100001
 7 3 1 -1.1128       5.59100000       1.96299999      13.47700000
 8 3 2 0.5564        7.26500000       1.86400000      13.85100001
 9 3 2 0.5564        5.00899999       3.55500000      13.91599999
 10 4 1 -1.1128       1.06000000       2.06100000      21.71800001
 11 4 2 0.5564        0.75700000       0.26100000      21.82000000
 12 4 2 0.5564        0.21300001       3.01299999      23.04700000
 13 5 1 -1.1128       1.20000000       1.33700000      29.00599999
 14 5 2 0.5564        0.81800000       1.88399999      30.73200000
 15 5 2 0.5564        2.88300001       1.82500000      29.01100000
 16 6 1 -1.1128       1.33100001       1.38599999      34.30600001
 17 6 2 0.5564        2.39200001       2.89799999      34.84600000
 18 6 2 0.5564        0.81400000       0.53200001      35.83600000
 19 7 1 -1.1128      31.45100000      10.20100000       0.72599999
 20 7 2 0.5564       32.28199999      10.87699999      -0.75000000
 21 7 2 0.5564       30.91999999      11.59399999       1.67700000
 22 8 1 -1.1128       0.83600000      10.80800001       4.29800000
 23 8 2 0.5564        0.30500000      10.64300001       2.79300000
 24 8 2 0.5564       -0.35600001      10.33400000       5.52400000
 25 9 1 -1.1128      34.38100001       5.97900000       9.19400000
 26 9 2 0.5564       33.61600000       7.67300000       8.85700000
 27 9 2 0.5564       35.11500000       5.25999999       7.61800001
 28 10 1 -1.1128      33.21200000       6.48000000      24.27799999
 29 10 2 0.5564       31.62400000       6.90800001      23.52100001
 30 10 2 0.5564       32.54400000       4.99000000      24.98200000
 31 11 1 -1.1128       1.99200000       9.00199999      26.86300000
 32 11 2 0.5564        1.85600000      10.17500000      25.57899999
 33 11 2 0.5564        0.51900000       8.09899999      26.38599999
 34 12 1 -1.1128       2.05400000       8.66000000      32.51499999
 35 12 2 0.5564        2.16699999       8.72700000      30.49400000
 36 12 2 0.5564        2.37400001      10.51300000      33.03799999
 37 13 1 -1.1128       3.40200000      16.63900001       3.00800000
 38 13 2 0.5564        4.12700001      15.87200001       4.44600001
 39 13 2 0.5564        2.90500001      18.33899999       3.15999999
 40 14 1 -1.1128       4.22200000      15.44400000       8.07200000
 41 14 2 0.5564        5.21100000      16.75600000       8.29900001
 42 14 2 0.5564        2.56000000      15.49200001       8.86000000
 43 15 1 -1.1128       2.83100000       9.24599999      16.48800000
 44 15 2 0.5564        2.86900001       8.02300001      18.05000000
 45 15 2 0.5564        3.96000000       8.46700001      15.15400000
 46 16 1 -1.1128       5.56300000       6.00300000      20.90700000
 47 16 2 0.5564        4.65300000       4.63800000      21.48000000
 48 16 2 0.5564        6.40500000       6.20800000      22.52899999
 49 17 1 -1.1128       2.08700001      13.37000000      22.91299999
 50 17 2 0.5564        2.83200000      14.80400001      23.42200000
 51 17 2 0.5564        1.43400000      13.50900000      21.19599999
 52 18 1 -1.1128       3.36900000      17.88600000      25.10900001
 53 18 2 0.5564        3.65500000      17.20000000      26.76599999
 54 18 2 0.5564        4.77200001      18.97699999      24.49999999
 55 19 1 -1.1128      34.76400000      20.80300000       0.94800001
 56 19 2 0.5564       35.20999999      21.26700001       2.81599999
 57 19 2 0.5564       35.96200001      21.72599999       0.13099999
 58 20 1 -1.1128       2.83600000      24.17799999      15.22900000
 59 20 2 0.5564        2.79500000      22.34599999      14.87600001
 60 20 2 0.5564        2.41399999      24.11500000      17.13000001
 61 21 1 -1.1128      33.00000000      24.48100000      15.23000000
 62 21 2 0.5564       34.63999999      24.80400001      15.01299999
 63 21 2 0.5564       32.40100000      25.76400000      14.29500001
 64 22 1 -1.1128       0.40399999      26.77900001      23.39999999
 65 22 2 0.5564        1.35300001      27.24800000      24.98700001
 66 22 2 0.5564        1.54600001      28.05000000      22.31700001
 67 23 1 -1.1128      34.22200000      21.38000000      25.41799999
 68 23 2 0.5564       35.66899999      20.15100000      25.31700001
 69 23 2 0.5564       32.96000000      21.18000000      23.99200000
 70 24 1 -1.1128      33.25900000      17.43800000      32.48000000
 71 24 2 0.5564       33.31399999      18.78200000      33.88300001
 72 24 2 0.5564       32.74300001      18.18100001      30.87100000
 73 25 1 -1.1128       4.46300000      21.97900000       3.93600000
 74 25 2 0.5564        5.85600000      23.08400001       3.39999999
 75 25 2 0.5564        3.98600000      22.18000000       5.60200000
 76 26 1 -1.1128       6.25800000      25.85100001       8.52000000
 77 26 2 0.5564        5.76700000      27.69300001       8.47600000
 78 26 2 0.5564        7.20200001      25.50600000      10.18600000
 79 27 1 -1.1128       0.60099999      29.73699999      12.74700001
 80 27 2 0.5564       -0.68500000      30.84200000      12.34999999
 81 27 2 0.5564        1.33600000      30.71600000      14.03099999
 82 28 1 -1.1128       7.56300000      28.19100001      24.33300000
 83 28 2 0.5564        9.20100000      28.82800000      24.68400000
 84 28 2 0.5564        7.38100001      27.62100000      22.79900000
 85 29 1 -1.1128       3.65300000      27.10900001      27.77200001
 86 29 2 0.5564        5.12600000      27.01500000      26.77200001
 87 29 2 0.5564        3.03099999      28.75600000      27.69800000
 88 30 1 -1.1128       2.59600001      23.99100001      32.47600000
 89 30 2 0.5564        2.87900000      24.79099999      30.85899999
 90 30 2 0.5564        4.00300000      22.91299999      32.70099999
 91 31 1 -1.1128       3.08300000      31.31700001       3.64399999
 92 31 2 0.5564        4.13300000      30.58900001       2.53900001
 93 31 2 0.5564        4.21800000      32.17300001       5.03700001
 94 32 1 -1.1128       4.66100001      30.55500000       9.36799999
 95 32 2 0.5564        3.18400001      29.84300000      10.13200000
 96 32 2 0.5564        4.35800000      32.44800000       9.12600000


Bonds

 1 1 1 2
 2 1 1 3
 3 1 4 5
 4 1 4 6
 5 1 7 8
 6 1 7 9
 7 1 10 11
 8 1 10 12
 9 1 13 14
 10 1 13 15
 11 1 16 17
 12 1 16 18
 13 1 19 20
 14 1 19 21
 15 1 22 23
 16 1 22 24
 17 1 25 26
 18 1 25 27
 19 1 28 29
 20 1 28 30
 21 1 31 32
 22 1 31 33
 23 1 34 35
 24 1 34 36
 25 1 37 38
 26 1 37 39
 27 1 40 41
 28 1 40 42
 29 1 43 44
 30 1 43 45
 31 1 46 47
 32 1 46 48
 33 1 49 50
 34 1 49 51
 35 1 52 53
 36 1 52 54
 37 1 55 56
 38 1 55 57
 39 1 58 59
 40 1 58 60
 41 1 61 62
 42 1 61 63
 43 1 64 65
 44 1 64 66
 45 1 67 68
 46 1 67 69
 47 1 70 71
 48 1 70 72
 49 1 73 74
 50 1 73 75
 51 1 76 77
 52 1 76 78
 53 1 79 80
 54 1 79 81
 55 1 82 83
 56 1 82 84
 57 1 85 86
 58 1 85 87
 59 1 88 89
 60 1 88 90
 61 1 91 92
 62 1 91 93
 63 1 94 95
 64 1 94 96

Angles

 1 1 2 1 3
 2 1 5 4 6
 3 1 8 7 9
 4 1 11 10 12
 5 1 14 13 15
 6 1 17 16 18
 7 1 20 19 21
 8 1 23 22 24
 9 1 26 25 27
 10 1 29 28 30
 11 1 32 31 33
 12 1 35 34 36
 13 1 38 37 39
 14 1 41 40 42
 15 1 44 43 45
 16 1 47 46 48
 17 1 50 49 51
 18 1 53 52 54
 19 1 56 55 57
 20 1 59 58 60
 21 1 62 61 63
 22 1 65 64 66
 23 1 68 67 69
 24 1 71 70 72
 25 1 74 73 75
 26 1 77 76 78
 27 1 80 79 81
 28 1 83 82 84
 29 1 86 85 87
 30 1 89 88 90
 31 1 92 91 93
 32 1 95 94 96
 
