#Bead    Energy (eV)
0     -0.19192244159057525
1     -0.17030786389933744
2     -0.12398905892717357
3     -0.05946085891504788
4     -0.0077787518976465304
5     -0.007778751897646487
6     -0.059460858915047744
7     -0.12398905892717345
8     -0.1703078638993374
9     -0.19192244159057525
