3
# CELL(abcABC):    7.00000     7.00000     7.00000    90.00000    90.00000    90.00000  Step:           0  Bead:       0 becz{atomic_unit}  cell{atomic_unit}
       O -1.20000e-09  1.34508e-04 -6.09679e-01
       H  3.85800e-07 -4.31015e-02  3.04741e-01
       H -3.84600e-07  4.29670e-02  3.04938e-01
3
# CELL(abcABC):    7.00000     7.00000     7.00000    90.00000    90.00000    90.00000  Step:           1  Bead:       0 becz{atomic_unit}  cell{atomic_unit}
       O -1.20000e-09  1.34508e-04 -6.09679e-01
       H  3.85800e-07 -4.31015e-02  3.04741e-01
       H -3.84600e-07  4.29670e-02  3.04938e-01
3
# CELL(abcABC):    7.00000     7.00000     7.00000    90.00000    90.00000    90.00000  Step:           2  Bead:       0 becz{atomic_unit}  cell{atomic_unit}
       O -1.20000e-09  1.34508e-04 -6.09679e-01
       H  3.85800e-07 -4.31015e-02  3.04741e-01
       H -3.84600e-07  4.29670e-02  3.04938e-01
3
# CELL(abcABC):    7.00000     7.00000     7.00000    90.00000    90.00000    90.00000  Step:           3  Bead:       0 becz{atomic_unit}  cell{atomic_unit}
       O -1.20000e-09  1.34508e-04 -6.09679e-01
       H  3.85800e-07 -4.31015e-02  3.04741e-01
       H -3.84600e-07  4.29670e-02  3.04938e-01
3
# CELL(abcABC):    7.00000     7.00000     7.00000    90.00000    90.00000    90.00000  Step:           4  Bead:       0 becz{atomic_unit}  cell{atomic_unit}
       O -1.20000e-09  1.34508e-04 -6.09679e-01
       H  3.85800e-07 -4.31015e-02  3.04741e-01
       H -3.84600e-07  4.29670e-02  3.04938e-01
3
# CELL(abcABC):    7.00000     7.00000     7.00000    90.00000    90.00000    90.00000  Step:           5  Bead:       0 becz{atomic_unit}  cell{atomic_unit}
       O -1.20000e-09  1.34508e-04 -6.09679e-01
       H  3.85800e-07 -4.31015e-02  3.04741e-01
       H -3.84600e-07  4.29670e-02  3.04938e-01
3
# CELL(abcABC):    7.00000     7.00000     7.00000    90.00000    90.00000    90.00000  Step:           6  Bead:       0 becz{atomic_unit}  cell{atomic_unit}
       O -1.20000e-09  1.34508e-04 -6.09679e-01
       H  3.85800e-07 -4.31015e-02  3.04741e-01
       H -3.84600e-07  4.29670e-02  3.04938e-01
3
# CELL(abcABC):    7.00000     7.00000     7.00000    90.00000    90.00000    90.00000  Step:           7  Bead:       0 becz{atomic_unit}  cell{atomic_unit}
       O -1.20000e-09  1.34508e-04 -6.09679e-01
       H  3.85800e-07 -4.31015e-02  3.04741e-01
       H -3.84600e-07  4.29670e-02  3.04938e-01
3
# CELL(abcABC):    7.00000     7.00000     7.00000    90.00000    90.00000    90.00000  Step:           8  Bead:       0 becz{atomic_unit}  cell{atomic_unit}
       O -1.20000e-09  1.34508e-04 -6.09679e-01
       H  3.85800e-07 -4.31015e-02  3.04741e-01
       H -3.84600e-07  4.29670e-02  3.04938e-01
3
# CELL(abcABC):    7.00000     7.00000     7.00000    90.00000    90.00000    90.00000  Step:           9  Bead:       0 becz{atomic_unit}  cell{atomic_unit}
       O -1.20000e-09  1.34508e-04 -6.09679e-01
       H  3.85800e-07 -4.31015e-02  3.04741e-01
       H -3.84600e-07  4.29670e-02  3.04938e-01
3
# CELL(abcABC):    7.00000     7.00000     7.00000    90.00000    90.00000    90.00000  Step:          10  Bead:       0 becz{atomic_unit}  cell{atomic_unit}
       O -1.20000e-09  1.34508e-04 -6.09679e-01
       H  3.85800e-07 -4.31015e-02  3.04741e-01
       H -3.84600e-07  4.29670e-02  3.04938e-01
