#Bead    Energy (eV)
0     -0.12050488099072883
1     -0.11888823959210822
2     -0.11565229857204261
3     -0.11079832428108352
4     -0.10434434957016593
5     -0.09634345534538866
6     -0.08690588054044487
7     -0.07622224176767421
8     -0.06458386263796938
9     -0.052395100963253526
10     -0.04017214366753678
11     -0.028523595211771943
12     -0.018110713997384627
13     -0.009589269523198938
14     -0.0035399219840284517
15     -0.0003983416747591146
16     -0.0003983416747591431
17     -0.0035399219840283928
18     -0.009589269523198975
19     -0.018110713997384148
20     -0.028523595211772362
21     -0.040172143667536755
22     -0.052395100963254
23     -0.06458386263796839
24     -0.07622224176767453
25     -0.08690588054044489
26     -0.09634345534538921
27     -0.10434434957016554
28     -0.11079832428108347
29     -0.11565229857204268
30     -0.11888823959210858
31     -0.12050488099072877
