#Bead    Energy (eV)
0     0.04898068445015675
1     0.05119741959945367
2     0.05680842959524242
3     0.0678179688713372
4     0.08638481797601462
5     0.11189406234581419
6     0.13570629787935032
7     0.14612527912448361
8     0.13932984992953926
9     0.12168522800329801
10     0.09821116521257958
11     0.07670181968081968
12     0.060500459691730915
13     0.049660862830592574
14     0.043200961486597814
15     0.04027358936215093
