#Bead    Energy (eV)
0     0.04825645474156761
1     0.05011521281190444
2     0.054624235348314294
3     0.06342044555206088
4     0.07871442411019267
5     0.10170489616039473
6     0.12774657424813082
7     0.1442415299315078
8     0.14343918260365737
9     0.12879765847746547
10     0.1063865812260448
11     0.08358316189393798
12     0.06568119212236621
13     0.053433377899566765
14     0.04604882916038747
15     0.042596090568175496
