#Bead    Energy (eV)
0     0.047000480881081705
1     0.048540745805408125
2     0.05229716062457533
3     0.05969520026890455
4     0.0727928178949055
5     0.0932656555395706
6     0.11912374210959654
7     0.14000957921110332
8     0.1459097837493836
9     0.13580829857132964
10     0.11664863044981832
11     0.09397576134328887
12     0.07477488908450806
13     0.061126884492198046
14     0.05274840016111142
15     0.048819396349009836
