#Bead    Energy (eV)
0     0.04707110851815223
1     0.048629325243244335
2     0.05242790114762217
3     0.05990286681175513
4     0.07311785306411694
5     0.09372267510917924
6     0.11960845253011342
7     0.14028170303204948
8     0.14584369758232013
9     0.13549596412035578
10     0.11616264040153498
11     0.09346028517031822
12     0.0743189125241669
13     0.06074011940717821
14     0.052413780127769254
15     0.04851015984559665
