#Bead    Energy (eV)
0     0.047326260866351076
1     0.04894986765132139
2     0.052902171650412215
3     0.060657866260543356
4     0.07430107173527616
5     0.09538501517105737
6     0.12135412977459256
7     0.14123367696811998
8     0.1455399452109994
9     0.13429049423312447
10     0.1143049536886203
11     0.09151109415922248
12     0.07259935096992415
13     0.05928338595076988
14     0.051153140720327596
15     0.0473445083172125
