#Bead    Energy (eV)
0     0.04768356085140438
1     0.04939461365412743
2     0.05355048513773009
3     0.06167311746295977
4     0.07586808144503333
5     0.09755620906576387
6     0.12357123059665635
7     0.14236588438419132
8     0.1450010725927133
9     0.1325996741109535
10     0.11178658068515497
11     0.08895596564707188
12     0.07038959870944665
13     0.05744359155335994
14     0.04957909050081842
15     0.04589793710632664
