#Bead    Energy (eV)
0     0.06609749183902248
1     0.06917958687928251
2     0.07651636325411229
3     0.08895589010071343
4     0.10654574807957333
5     0.12626279217180666
6     0.14119662586930817
7     0.14613925312163503
8     0.13976616621533475
9     0.1265881070980252
10     0.109287250786556
11     0.09214845045953049
12     0.07826181720228342
13     0.06835240828788859
14     0.06223621123522454
15     0.05955516525759201
