#Bead    Energy (eV)
0     0.04716196301854047
1     0.04874305405774195
2     0.05259525136155942
3     0.06016778552483738
4     0.07353106531182262
5     0.0943013453205325
6     0.12021725056134766
7     0.14061774433201396
8     0.1457503361134273
9     0.13509418710270654
10     0.11554222394137909
11     0.09280787692836757
12     0.07374463359257678
13     0.06025497749370654
14     0.05199519333324893
15     0.04812384900505698
