#Bead    Energy (eV)
0     0.04702493896116645
1     0.048571397421526434
2     0.05234234949380354
3     0.059766893903191225
4     0.07290492312524598
5     0.09342319302388279
6     0.1192909504569416
7     0.1401037681900495
8     0.1458878705963857
9     0.1357017751645486
10     0.1164828056934044
11     0.09379976928707788
12     0.07461930400013642
13     0.060995018830304386
14     0.05263440467212523
15     0.04871410326084989
