7
# CELL(abcABC):   35.23300    35.23300    35.23300    90.00000    90.00000    90.00000  Step:           3  Bead:       0 positions{angstrom}  cell{atomic_unit}
   H              0.13653169       -1.42167286       -0.89038905  H
   H              1.60777812       -0.97592555       -0.28273782  H
   O              0.41131003       -0.93977977       -0.11788910  O   
   H              3.41185678       -1.68527470        0.53487569  H  
   H              3.58513613       -0.37429751       -0.32374851  H
   O              2.94337023       -0.95785919        0.08987083  O
   H              0.16618329       -0.02285293       -0.08985620  H
