3
# CELL(abcABC):   25.29166    25.29166    25.29166    90.00000    90.00000    90.00000  Step:           0  Bead:       0 positions{atomic_unit}  cell{atomic_unit}
       O  1.02130e+00 -1.84220e+00 -4.09276e-01
       H  3.47444e-01 -2.37735e+00 -2.03854e+00
       H  7.99951e-02 -3.68232e-01  1.74386e-01
3
# CELL(abcABC):   25.29166    25.29166    25.29166    90.00000    90.00000    90.00000  Step:           5  Bead:       0 positions{atomic_unit}  cell{atomic_unit}
       O  1.06603e+00 -1.80513e+00 -4.36847e-01
       H  3.15319e-01 -2.26335e+00 -1.97654e+00
       H -7.71141e-02 -2.70743e-01  8.82783e-02
3
# CELL(abcABC):   25.29166    25.29166    25.29166    90.00000    90.00000    90.00000  Step:          10  Bead:       0 positions{atomic_unit}  cell{atomic_unit}
       O  1.11695e+00 -1.78154e+00 -4.46969e-01
       H  3.54755e-01 -2.23616e+00 -2.00587e+00
       H -1.34343e-01 -4.46803e-01  1.07305e-01
