5
# CELL(abcABC):  100 100 100    90.00000    90.00000    90.00000  cell{atomic_unit}  Traj: positions{angstrom} Step:           9  Bead:       0 
       C  5.77568e-01  7.10503e-01  5.95431e-01
       H  1.00494e-04  1.08773e-01  1.29743e+00
       H  1.28079e+00  1.06096e-01  2.22598e-02
       H -6.31180e-02  1.31234e+00 -4.92875e-02
       H  1.80833e+00  2.15490e+00  1.82860e+00
