   9
CELL(abcABC):  130.18034   170.29206   240.21758    90.00000    90.00000    90.00000  cell{atomic_unit}  Traj: positions{angstrom} Step:  12  Bead: 0 
O      -1.516074336e+00  -2.023167650e-01   1.454672917e+00
H      -6.218989773e-01  -6.009430735e-01   1.572437625e+00
H      -2.017613812e+00  -4.190350349e-01   2.239642849e+00
O      -1.763651687e+00  -3.816594649e-01  -1.300353949e+00
H      -1.903851736e+00  -4.935677617e-01  -3.457810126e-01
H      -2.527904158e+00  -7.613550077e-01  -1.733803676e+00
O      -5.588472140e-01   2.006699172e+00  -1.392786582e-01
H      -9.411558180e-01   1.541226676e+00   6.163293071e-01
H      -9.858551734e-01   1.567124294e+00  -8.830970941e-01
