3
# CELL(abcABC):   25.29166    25.29166    25.29166    90.00000    90.00000    90.00000  Step:           0  Bead:       0 x_centroid{atomic_unit}  cell{atomic_unit}
       O  1.02130e+00 -1.84220e+00 -4.09276e-01
       H  3.47444e-01 -2.37735e+00 -2.03854e+00
       H  7.99951e-02 -3.68232e-01  1.74386e-01
3
# CELL(abcABC):   25.29166    25.29166    25.29166    90.00000    90.00000    90.00000  Step:           1  Bead:       0 x_centroid{atomic_unit}  cell{atomic_unit}
       O  1.01396e+00 -1.83765e+00 -4.13664e-01
       H  3.49226e-01 -2.36629e+00 -2.02182e+00
       H  8.55550e-02 -3.83844e-01  1.62049e-01
3
# CELL(abcABC):   25.29166    25.29166    25.29166    90.00000    90.00000    90.00000  Step:           2  Bead:       0 x_centroid{atomic_unit}  cell{atomic_unit}
       O  1.01635e+00 -1.83904e+00 -4.12121e-01
       H  3.46321e-01 -2.35273e+00 -2.00841e+00
       H  8.60719e-02 -3.96021e-01  1.47096e-01
3
# CELL(abcABC):   25.29166    25.29166    25.29166    90.00000    90.00000    90.00000  Step:           3  Bead:       0 x_centroid{atomic_unit}  cell{atomic_unit}
       O  1.02622e+00 -1.84476e+00 -4.05700e-01
       H  3.39725e-01 -2.33744e+00 -1.99794e+00
       H  8.27930e-02 -4.05587e-01  1.30207e-01
3
# CELL(abcABC):   25.29166    25.29166    25.29166    90.00000    90.00000    90.00000  Step:           4  Bead:       0 x_centroid{atomic_unit}  cell{atomic_unit}
       O  1.03834e+00 -1.85183e+00 -3.97896e-01
       H  3.32555e-01 -2.32542e+00 -1.99248e+00
       H  7.78432e-02 -4.10529e-01  1.16937e-01
3
# CELL(abcABC):   25.29166    25.29166    25.29166    90.00000    90.00000    90.00000  Step:           5  Bead:       0 x_centroid{atomic_unit}  cell{atomic_unit}
       O  1.04018e+00 -1.85291e+00 -3.96709e-01
       H  3.31673e-01 -2.32516e+00 -1.99336e+00
       H  7.68852e-02 -4.09723e-01  1.16638e-01
3
# CELL(abcABC):   25.29166    25.29166    25.29166    90.00000    90.00000    90.00000  Step:           6  Bead:       0 x_centroid{atomic_unit}  cell{atomic_unit}
       O  1.04020e+00 -1.85292e+00 -3.96704e-01
       H  3.31725e-01 -2.32559e+00 -1.99385e+00
       H  7.68159e-02 -4.09276e-01  1.17116e-01
3
# CELL(abcABC):   25.29166    25.29166    25.29166    90.00000    90.00000    90.00000  Step:           7  Bead:       0 x_centroid{atomic_unit}  cell{atomic_unit}
       O  1.04018e+00 -1.85291e+00 -3.96718e-01
       H  3.31741e-01 -2.32563e+00 -1.99388e+00
       H  7.68237e-02 -4.09247e-01  1.17164e-01
3
# CELL(abcABC):   25.29166    25.29166    25.29166    90.00000    90.00000    90.00000  Step:           8  Bead:       0 x_centroid{atomic_unit}  cell{atomic_unit}
       O  1.04018e+00 -1.85291e+00 -3.96719e-01
       H  3.31742e-01 -2.32563e+00 -1.99388e+00
       H  7.68240e-02 -4.09247e-01  1.17165e-01
