3
# CELL(abcABC):   25.29166    25.29166    25.29166    90.00000    90.00000    90.00000  Step:           0  Bead:       0 f_centroid{atomic_unit}  cell{atomic_unit}
       O -7.34145e-03  4.55046e-03 -4.38801e-03
       H  1.78151e-03  1.10616e-02  1.67248e-02
       H  5.55994e-03 -1.56120e-02 -1.23368e-02
3
# CELL(abcABC):   25.29166    25.29166    25.29166    90.00000    90.00000    90.00000  Step:           1  Bead:       0 f_centroid{atomic_unit}  cell{atomic_unit}
       O  2.55716e-03 -1.52699e-03  1.60311e-03
       H -2.11451e-03  7.17545e-03  6.28542e-03
       H -4.42653e-04 -5.64846e-03 -7.88853e-03
3
# CELL(abcABC):   25.29166    25.29166    25.29166    90.00000    90.00000    90.00000  Step:           2  Bead:       0 f_centroid{atomic_unit}  cell{atomic_unit}
       O  6.76909e-03 -3.97085e-03  4.33533e-03
       H -3.60697e-03  3.78041e-03 -1.67542e-04
       H -3.16212e-03  1.90439e-04 -4.16779e-03
3
# CELL(abcABC):   25.29166    25.29166    25.29166    90.00000    90.00000    90.00000  Step:           3  Bead:       0 f_centroid{atomic_unit}  cell{atomic_unit}
       O  5.95254e-03 -3.51776e-03  3.77902e-03
       H -2.86256e-03  1.09795e-03 -2.58158e-03
       H -3.08998e-03  2.41981e-03 -1.19743e-03
3
# CELL(abcABC):   25.29166    25.29166    25.29166    90.00000    90.00000    90.00000  Step:           4  Bead:       0 f_centroid{atomic_unit}  cell{atomic_unit}
       O  1.60764e-03 -9.43767e-04  1.02872e-03
       H -6.92191e-04 -3.34239e-04 -1.39623e-03
       H -9.15446e-04  1.27801e-03  3.67509e-04
3
# CELL(abcABC):   25.29166    25.29166    25.29166    90.00000    90.00000    90.00000  Step:           5  Bead:       0 f_centroid{atomic_unit}  cell{atomic_unit}
       O  2.13112e-04 -1.28755e-04  1.31675e-04
       H -7.88256e-05 -1.27735e-04 -2.74428e-04
       H -1.34287e-04  2.56490e-04  1.42752e-04
3
# CELL(abcABC):   25.29166    25.29166    25.29166    90.00000    90.00000    90.00000  Step:           6  Bead:       0 f_centroid{atomic_unit}  cell{atomic_unit}
       O -4.17647e-07  1.15430e-06  9.02975e-07
       H  8.84676e-07 -8.64785e-06 -9.89702e-06
       H -4.67030e-07  7.49356e-06  8.99405e-06
3
# CELL(abcABC):   25.29166    25.29166    25.29166    90.00000    90.00000    90.00000  Step:           7  Bead:       0 f_centroid{atomic_unit}  cell{atomic_unit}
       O -4.02025e-07 -2.96498e-08 -5.99215e-07
       H  3.26759e-07 -6.76546e-08  3.68926e-07
       H  7.52656e-08  9.73044e-08  2.30289e-07
3
# CELL(abcABC):   25.29166    25.29166    25.29166    90.00000    90.00000    90.00000  Step:           8  Bead:       0 f_centroid{atomic_unit}  cell{atomic_unit}
       O -2.04796e-08  8.09670e-08  7.56415e-08
       H -2.32091e-08 -1.55208e-08 -5.23684e-08
       H  4.36887e-08 -6.54462e-08 -2.32731e-08
