3
# CELL(abcABC):    7.00000     7.00000     7.00000    90.00000    90.00000    90.00000  Step:           0  Bead:       0 forces{atomic_unit}  cell{atomic_unit}
       O -2.90210e-11  3.21567e-06  3.43901e-06
       H  2.65243e-11 -2.93903e-06 -3.91722e-06
       H  2.49667e-12 -2.76644e-07  4.78210e-07