#Bead    Energy (eV)
0     -0.13743963394820963
1     -0.11826141922486744
2     -0.08169669127916508
3     -0.03704604121273956
4     -0.0046726684543023
5     -0.0046726684543022924
6     -0.03704604121273951
7     -0.08169669127916501
8     -0.11826141922486738
9     -0.13743963394820963
