#Bead    Energy (eV)
0     -0.14343279483760368
1     -0.12327370894308376
2     -0.08492613091085341
3     -0.0383634079802178
4     -0.00482467493457088
5     -0.00482467493457088
6     -0.038363407980217784
7     -0.08492613091085341
8     -0.12327370894308376
9     -0.14343279483760368
