192
# CELL(abcABC):   23.23964    23.23964    23.23964    90.00000    90.00000    90.00000  Step:       60000  Bead:       0 x_centroid{atomic_unit}  cell{atomic_unit}
       O -9.49031e+00  5.82837e+01 -2.31601e+01
       H -1.11632e+01  5.79669e+01 -2.37609e+01
       H -8.33195e+00  5.79969e+01 -2.45829e+01
       O  4.09489e+01  1.03904e+02 -5.02961e+01
       H  4.19143e+01  1.02629e+02 -4.95152e+01
       H  4.02344e+01  1.03346e+02 -5.18875e+01
       O  2.92622e+01  7.75002e+00 -5.61628e+01
       H  2.98537e+01  9.65284e+00 -5.62079e+01
       H  2.81084e+01  7.60228e+00 -5.76798e+01
       O  6.54586e+01 -3.86589e+01 -8.36717e+01
       H  6.37541e+01 -3.79772e+01 -8.38709e+01
       H  6.54415e+01 -4.04862e+01 -8.33490e+01
       O  7.39990e+01  1.27398e+02  6.77142e+01
       H  7.30997e+01  1.27349e+02  6.92929e+01
       H  7.35121e+01  1.25995e+02  6.66647e+01
       O -4.68357e+01  2.75348e+01  6.69888e+00
       H -4.58039e+01  2.87265e+01  7.60891e+00
       H -4.57694e+01  2.71110e+01  5.30881e+00
       O  4.60780e+00 -2.65418e+01 -5.26553e+00
       H  5.97760e+00 -2.68981e+01 -4.18033e+00
       H  5.28066e+00 -2.62627e+01 -7.00895e+00
       O  2.31869e+01  2.01091e+01  5.98642e+01
       H  2.33755e+01  2.13519e+01  5.85355e+01
       H  2.23361e+01  2.07867e+01  6.12741e+01
       O  8.09812e+01 -3.42541e+01  8.61934e+01
       H  8.17250e+01 -3.26632e+01  8.66449e+01
       H  8.03705e+01 -3.49201e+01  8.78355e+01
       O -5.04543e+01 -1.09406e+02 -4.28806e+01
       H -4.99777e+01 -1.07664e+02 -4.28672e+01
       H -4.91874e+01 -1.09981e+02 -4.16191e+01
       O -7.40130e+01  4.91200e+01  1.09874e+01
       H -7.43401e+01  4.74531e+01  1.07705e+01
       H -7.53828e+01  4.99408e+01  1.17930e+01
       O -9.71134e+01  6.82033e+01  6.31832e+01
       H -9.58855e+01  6.83835e+01  6.45096e+01
       H -9.81070e+01  6.96737e+01  6.33574e+01
       O  1.31758e+00 -4.26282e+01 -2.56461e+01
       H  2.35520e+00 -4.17351e+01 -2.67926e+01
       H -1.67005e-01 -4.16324e+01 -2.55967e+01
       O  6.32343e+01 -5.12772e+01  3.01708e+00
       H  6.47400e+01 -5.19077e+01  2.09744e+00
       H  6.35402e+01 -4.94965e+01  3.18910e+00
       O  1.26442e+01 -2.28419e+01  2.20811e+01
       H  1.32295e+01 -2.30891e+01  2.36845e+01
       H  1.11639e+01 -2.38046e+01  2.19862e+01
       O -9.68741e+01 -4.65020e+01 -1.86308e+01
       H -9.62690e+01 -4.77496e+01 -1.75182e+01
       H -9.60990e+01 -4.49643e+01 -1.80810e+01
       O -1.57668e+01 -4.17970e+01 -6.71963e+01
       H -1.57604e+01 -4.01799e+01 -6.64902e+01
       H -1.47521e+01 -4.16779e+01 -6.86318e+01
       O -3.99145e+01  7.85460e+01 -8.76384e+01
       H -3.89695e+01  7.94745e+01 -8.63860e+01
       H -4.12680e+01  7.96515e+01 -8.81887e+01
       O  6.96592e+01  2.05787e+01  2.42326e+01
       H  6.87124e+01  2.14368e+01  2.53920e+01
       H  6.95467e+01  2.15799e+01  2.27064e+01
       O  9.07311e+01  3.74136e+01  7.89651e+00
       H  9.22542e+01  3.68760e+01  8.84267e+00
       H  9.08761e+01  3.91540e+01  7.61539e+00
       O -3.23053e+01  7.01091e+01 -1.87583e+01
       H -3.24560e+01  7.18541e+01 -1.89908e+01
       H -3.05887e+01  6.98604e+01 -1.84398e+01
       O  1.34626e+01  1.68794e+01  8.78166e+01
       H  1.31995e+01  1.75705e+01  8.94629e+01
       H  1.51771e+01  1.64862e+01  8.77111e+01
       O -1.10728e+01  6.77306e+01 -5.42536e+01
       H -1.05517e+01  6.61703e+01 -5.35152e+01
       H -1.24209e+01  6.73038e+01 -5.53451e+01
       O  1.26064e+02 -1.80212e+01  4.44001e+01
       H  1.27570e+02 -1.88268e+01  4.50157e+01
       H  1.25219e+02 -1.91607e+01  4.32521e+01
       O -6.56398e+01  4.00244e+01  3.26546e+01
       H -6.52434e+01  4.00450e+01  3.08230e+01
       H -6.71374e+01  4.10790e+01  3.28995e+01
       O  2.72169e+01 -4.50423e+01  1.51277e+01
       H  2.55307e+01 -4.43766e+01  1.47949e+01
       H  2.83042e+01 -4.39751e+01  1.40539e+01
       O -7.87818e+00 -1.83943e+01  1.39461e+01
       H -9.54597e+00 -1.83542e+01  1.33265e+01
       H -7.64053e+00 -1.66796e+01  1.45186e+01
       O  4.10439e+01  2.04396e+01  3.42814e+01
       H  4.16340e+01  2.05850e+01  3.60131e+01
       H  3.94804e+01  1.95526e+01  3.44012e+01
       O  8.35543e+01 -4.07875e+01 -1.83103e+01
       H  8.51057e+01 -4.03854e+01 -1.91162e+01
       H  8.34956e+01 -3.94716e+01 -1.71790e+01
       O -3.12135e+01 -5.60361e+01  4.98197e+00
       H -2.99950e+01 -5.47036e+01  4.76642e+00
       H -3.14135e+01 -5.67652e+01  3.32788e+00
       O -9.61443e+01  2.94866e+01  6.78736e+01
       H -9.73327e+01  2.82313e+01  6.72928e+01
       H -9.61738e+01  2.96298e+01  6.96924e+01
       O  9.20832e+00 -3.49973e+01  3.22336e+01
       H  9.67552e+00 -3.32818e+01  3.19189e+01
       H  8.79726e+00 -3.47131e+01  3.39818e+01
       O -4.70248e+01  5.01552e+01  1.43764e+01
       H -4.81948e+01  4.94955e+01  1.31162e+01
       H -4.69248e+01  5.19176e+01  1.42667e+01
       O  1.37730e+01  6.34973e+01 -1.20525e+01
       H  1.29372e+01  6.39687e+01 -1.05081e+01
       H  1.50420e+01  6.22843e+01 -1.15374e+01
       O -8.99814e+01 -5.81854e+01 -2.03313e+01
       H -8.98220e+01 -5.64299e+01 -1.99603e+01
       H -9.16908e+01 -5.86298e+01 -2.01416e+01
       O  3.19878e+01 -2.15583e+01 -2.92391e+01
       H  3.02899e+01 -2.20254e+01 -2.97799e+01
       H  3.30661e+01 -2.30530e+01 -2.94941e+01
       O  2.08358e+01  3.46524e+01  4.98000e+01
       H  2.03925e+01  3.51920e+01  5.15890e+01
       H  2.07497e+01  3.61728e+01  4.88480e+01
       O -1.08717e+01  8.70407e+01  9.30409e+01
       H -9.25986e+00  8.76170e+01  9.37871e+01
       H -1.08752e+01  8.53474e+01  9.34007e+01
       O -3.09264e+01  1.49302e+02  1.08183e+02
       H -3.26018e+01  1.50101e+02  1.08663e+02
       H -3.01702e+01  1.50405e+02  1.06824e+02
       O  5.62601e+01  3.33891e+01  4.41767e+01
       H  5.62425e+01  3.15443e+01  4.41674e+01
       H  5.45645e+01  3.40419e+01  4.43233e+01
       O  4.91055e+01  2.64393e+01 -2.04931e+01
       H  5.08207e+01  2.69535e+01 -2.07987e+01
       H  4.86002e+01  2.65003e+01 -2.21915e+01
       O  1.68084e+02 -4.85975e+01 -2.05861e+01
       H  1.69255e+02 -4.74332e+01 -1.98694e+01
       H  1.66440e+02 -4.78801e+01 -2.06213e+01
       O -3.02140e+01  2.59477e+00 -2.76357e+01
       H -3.08310e+01  3.28887e+00 -2.92109e+01
       H -3.15230e+01  1.48427e+00 -2.71338e+01
       O  1.41532e+01 -3.66654e+01 -3.80569e+01
       H  1.48204e+01 -3.52457e+01 -3.87887e+01
       H  1.23653e+01 -3.62545e+01 -3.76375e+01
       O  2.61982e+01 -1.54748e+01  6.41630e+01
       H  2.73021e+01 -1.55367e+01  6.26395e+01
       H  2.45690e+01 -1.50710e+01  6.33942e+01
       O  1.76372e+01 -3.26995e+01 -1.11955e+01
       H  1.90872e+01 -3.22247e+01 -1.01864e+01
       H  1.82674e+01 -3.28177e+01 -1.28501e+01
       O -1.32716e+01 -6.52428e+01 -7.99575e+01
       H -1.33239e+01 -6.62580e+01 -7.84898e+01
       H -1.47013e+01 -6.41432e+01 -8.00326e+01
       O -2.01187e+01  1.43806e+01  4.05316e+01
       H -1.95584e+01  1.60868e+01  4.08206e+01
       H -1.98959e+01  1.34261e+01  4.20572e+01
       O -4.10886e+01  3.93617e+01  2.76359e+01
       H -4.10409e+01  4.11646e+01  2.73427e+01
       H -3.93171e+01  3.90679e+01  2.78740e+01
       O -6.94853e+01  6.87823e+01  1.96022e+01
       H -6.79055e+01  6.80870e+01  1.90069e+01
       H -6.91176e+01  7.06222e+01  1.95689e+01
       O -4.32018e+01  7.75442e+00 -1.39566e+01
       H -4.37883e+01  9.43909e+00 -1.32778e+01
       H -4.22520e+01  7.99876e+00 -1.54332e+01
       O -1.29358e+00  1.53118e+01  3.78824e+01
       H  7.01702e-02  1.50340e+01  3.90271e+01
       H -9.49788e-01  1.70025e+01  3.72713e+01
       O  1.09977e+01  1.59460e+01  1.69078e+02
       H  1.22766e+01  1.53553e+01  1.68078e+02
       H  1.18547e+01  1.68454e+01  1.70349e+02
       O  7.26960e+00 -2.24482e+01  5.66549e+01
       H  8.05556e+00 -2.27478e+01  5.49976e+01
       H  8.30318e+00 -2.10687e+01  5.72991e+01
       O -4.82619e+01  9.04347e+00 -1.01566e+02
       H -4.91457e+01  9.17553e+00 -1.03168e+02
       H -4.95729e+01  8.35428e+00 -1.00471e+02
       O  2.04339e+01  3.93135e+01  1.16632e+02
       H  2.15142e+01  4.07738e+01  1.16536e+02
       H  1.97233e+01  3.90141e+01  1.15006e+02
       O  2.12415e+01 -5.02165e+01  3.06761e+01
       H  1.99508e+01 -4.99354e+01  3.18957e+01
       H  2.25451e+01 -4.89280e+01  3.09854e+01
       O -1.42670e+01  2.39433e+01  7.51709e+01
       H -1.44594e+01  2.55041e+01  7.41970e+01
       H -1.24664e+01  2.35782e+01  7.50366e+01
       O  8.84077e+01  6.21185e+01 -4.66669e+00
       H  8.81718e+01  6.02864e+01 -4.45529e+00
       H  8.96688e+01  6.22465e+01 -5.94553e+00
       O  7.66349e+01 -5.73014e+01  1.06609e+02
       H  7.54003e+01 -5.66292e+01  1.07785e+02
       H  7.81235e+01 -5.74662e+01  1.07576e+02
       O  6.90824e+00  1.89421e+01  3.64770e+01
       H  6.47518e+00  2.05705e+01  3.58656e+01
       H  6.06724e+00  1.77813e+01  3.53116e+01
       O  1.71125e+02  2.03424e+01 -2.48276e+01
       H  1.72225e+02  1.91091e+01 -2.41224e+01
       H  1.69770e+02  2.05544e+01 -2.36552e+01
       O -6.86934e+01  6.95167e+01 -3.71209e+01
       H -6.69683e+01  7.01269e+01 -3.71030e+01
       H -6.97834e+01  7.09336e+01 -3.73972e+01
       O -4.49279e+01 -3.40237e+01  1.08364e+01
       H -4.59540e+01 -3.31540e+01  1.20170e+01
       H -4.36376e+01 -3.26630e+01  1.04966e+01
