192
# CELL(abcABC):   23.62434    23.62434    23.62434    90.00000    90.00000    90.00000  Step:       60000  Bead:       0 x_centroid{atomic_unit}  cell{atomic_unit}
       O -1.44830e+01  3.85425e+01 -2.01672e+01
       H -1.29218e+01  3.87874e+01 -2.10086e+01
       H -1.56691e+01  3.78168e+01 -2.13948e+01
       O  6.55666e+01  9.32671e+01 -3.94350e+01
       H  6.53496e+01  9.32730e+01 -3.75439e+01
       H  6.43798e+01  9.20443e+01 -4.01101e+01
       O  1.23514e+01  5.05406e+01 -6.51774e+01
       H  1.09579e+01  4.99061e+01 -6.42937e+01
       H  1.27384e+01  4.91413e+01 -6.62830e+01
       O  5.96196e+01 -4.96837e+01 -8.26668e+01
       H  6.13214e+01 -4.90340e+01 -8.24064e+01
       H  5.88672e+01 -4.99547e+01 -8.10166e+01
       O  6.91993e+01  1.31494e+02  4.54647e+01
       H  6.85857e+01  1.33124e+02  4.50159e+01
       H  6.80423e+01  1.30922e+02  4.67598e+01
       O -5.88227e+01  5.32281e+01  1.67222e+01
       H -5.71919e+01  5.36280e+01  1.59179e+01
       H -5.94433e+01  5.21356e+01  1.53775e+01
       O -1.30562e+00 -1.42797e+01  8.04645e+00
       H -2.24152e+00 -1.38299e+01  9.51718e+00
       H -2.59442e+00 -1.48001e+01  6.79606e+00
       O  2.56774e+01 -2.65977e+00  6.51254e+01
       H  2.58493e+01 -3.97369e+00  6.63259e+01
       H  2.72735e+01 -2.10910e+00  6.47298e+01
       O  9.54853e+01 -2.83662e+01  9.57821e+01
       H  9.66375e+01 -2.85434e+01  9.44404e+01
       H  9.60514e+01 -2.70771e+01  9.70049e+01
       O -4.89653e+01 -9.81167e+01 -5.68525e+01
       H -4.79564e+01 -9.81589e+01 -5.54296e+01
       H -4.85192e+01 -9.98521e+01 -5.73450e+01
       O -9.12209e+01  3.87808e+01  8.95447e+00
       H -9.24489e+01  3.90838e+01  7.57669e+00
       H -9.07253e+01  3.70867e+01  8.88241e+00
       O -1.00147e+02  8.75923e+01  6.76339e+01
       H -1.00343e+02  8.70304e+01  6.58689e+01
       H -1.01590e+02  8.68431e+01  6.83050e+01
       O -3.69710e+00 -4.01268e+01 -4.29766e+01
       H -2.16990e+00 -4.08942e+01 -4.36263e+01
       H -4.62251e+00 -4.14024e+01 -4.20032e+01
       O  6.29577e+01 -4.95810e+01  2.22058e+01
       H  6.39252e+01 -5.08751e+01  2.14668e+01
       H  6.24328e+01 -4.85136e+01  2.08324e+01
       O -9.52132e+00 -7.26806e+00  1.15761e+01
       H -1.01102e+01 -5.60899e+00  1.18960e+01
       H -9.54189e+00 -7.15005e+00  9.72722e+00
       O -6.25353e+01 -2.46765e+01 -4.63246e+01
       H -6.41394e+01 -2.47687e+01 -4.55666e+01
       H -6.26833e+01 -2.35302e+01 -4.77393e+01
       O  1.07167e+01 -3.99520e+01 -4.43667e+01
       H  1.16033e+01 -4.01564e+01 -4.58560e+01
       H  1.12768e+01 -4.14683e+01 -4.34074e+01
       O -1.59097e+01  7.37546e+01 -7.29807e+01
       H -1.44751e+01  7.47675e+01 -7.25112e+01
       H -1.73691e+01  7.48511e+01 -7.28819e+01
       O  1.22166e+02  2.70931e+01  5.29579e+01
       H  1.21049e+02  2.72273e+01  5.43975e+01
       H  1.22211e+02  2.52203e+01  5.27009e+01
       O  8.48799e+01  7.18022e+01 -2.90023e+01
       H  8.65826e+01  7.24434e+01 -2.92618e+01
       H  8.39051e+01  7.32652e+01 -2.86398e+01
       O  1.46641e+00  3.53276e+01 -2.16763e+01
       H  5.61787e-01  3.61728e+01 -2.29778e+01
       H  5.87289e-01  3.38677e+01 -2.12396e+01
       O  1.30378e+01 -8.25795e+00  9.44266e+01
       H  1.19002e+01 -7.20085e+00  9.34704e+01
       H  1.25903e+01 -9.95364e+00  9.40279e+01
       O  8.96274e+00  5.75336e+01 -7.86949e+01
       H  9.76544e+00  5.60012e+01 -7.81357e+01
       H  1.01628e+01  5.79293e+01 -8.00494e+01
       O  1.21254e+02 -1.78716e+01  4.49340e+01
       H  1.20297e+02 -1.90609e+01  4.39414e+01
       H  1.20518e+02 -1.62624e+01  4.45703e+01
       O -7.71587e+01  3.86913e+01  3.93034e+01
       H -7.80269e+01  3.72577e+01  3.99603e+01
       H -7.82193e+01  3.94168e+01  3.79977e+01
       O  2.93759e+01 -1.62685e+01  1.24621e+01
       H  3.02834e+01 -1.50168e+01  1.33141e+01
       H  2.86694e+01 -1.53172e+01  1.10784e+01
       O -3.84083e+01  5.51536e-02  8.18486e+00
       H -3.71285e+01 -1.07258e+00  8.96005e+00
       H -3.96991e+01 -8.69253e-01  7.42190e+00
       O  1.72442e+01  2.24767e+01  3.67138e+01
       H  1.85582e+01  2.15631e+01  3.75326e+01
       H  1.77263e+01  2.42010e+01  3.65476e+01
       O  7.15068e+01 -4.16451e+01 -2.16291e+01
       H  7.24933e+01 -4.27442e+01 -2.04903e+01
       H  7.25719e+01 -4.15925e+01 -2.31199e+01
       O -5.17308e+00 -5.94474e+01  1.47213e+00
       H -5.22764e+00 -5.80726e+01  2.67549e+00
       H -4.55615e+00 -6.09019e+01  2.50765e+00
       O -9.88345e+01  2.81062e+01  5.85750e+01
       H -9.95832e+01  2.83748e+01  5.68827e+01
       H -9.94817e+01  2.94157e+01  5.96608e+01
       O  1.22877e+01 -4.18454e+01 -1.57340e+00
       H  1.24005e+01 -4.10394e+01 -3.20319e+00
       H  1.40333e+01 -4.23765e+01 -1.12917e+00
       O -4.68311e+01  3.92672e+01  4.98866e+00
       H -4.67831e+01  4.04511e+01  3.57462e+00
       H -4.62393e+01  3.76840e+01  4.27525e+00
       O  3.54846e+01  3.48222e+01  1.17433e+01
       H  3.62479e+01  3.65234e+01  1.16283e+01
       H  3.47780e+01  3.45988e+01  1.00879e+01
       O -8.99100e+01 -5.34030e+01 -2.60107e+01
       H -8.81961e+01 -5.28377e+01 -2.61335e+01
       H -8.97682e+01 -5.47229e+01 -2.72342e+01
       O  2.67686e+01 -7.23966e+01 -1.88890e+01
       H  2.56884e+01 -7.25739e+01 -1.73971e+01
       H  2.80463e+01 -7.36418e+01 -1.84206e+01
       O  5.37616e+01  3.48601e+01  4.71574e+01
       H  5.33647e+01  3.35508e+01  4.83995e+01
       H  5.22141e+01  3.57538e+01  4.69962e+01
       O -3.24694e+01  6.58195e+01  7.74016e+01
       H -3.28097e+01  6.69704e+01  7.60415e+01
       H -3.15184e+01  6.43854e+01  7.68509e+01
       O -3.83346e+01  1.44978e+02  1.08235e+02
       H -3.88522e+01  1.43970e+02  1.06881e+02
       H -3.92913e+01  1.46437e+02  1.07534e+02
       O  4.22997e+01  3.90504e+01  5.21583e+01
       H  4.39881e+01  3.91610e+01  5.28772e+01
       H  4.22730e+01  4.04575e+01  5.11347e+01
       O  2.37966e+01 -2.15603e+01 -4.95806e+00
       H  2.41323e+01 -2.33879e+01 -5.30815e+00
       H  2.41176e+01 -2.07669e+01 -6.54852e+00
       O  1.81498e+02 -3.59750e+01 -4.13195e+00
       H  1.82820e+02 -3.60367e+01 -2.88961e+00
       H  1.80044e+02 -3.56081e+01 -3.10528e+00
       O -4.33792e+01 -1.35856e+01 -1.50993e+01
       H -4.51523e+01 -1.39270e+01 -1.53274e+01
       H -4.24831e+01 -1.35946e+01 -1.66598e+01
       O  2.52903e+01 -1.91908e+01 -9.66081e+00
       H  2.46941e+01 -1.97725e+01 -1.12900e+01
       H  2.65268e+01 -1.80201e+01 -1.01498e+01
       O  2.38955e+01 -2.01997e+01  7.98519e+01
       H  2.23046e+01 -1.95868e+01  8.05230e+01
       H  2.37556e+01 -2.19876e+01  7.99387e+01
       O  1.74464e+01 -1.95175e+01 -4.90557e-01
       H  1.86950e+01 -1.93951e+01 -1.80774e+00
       H  1.83350e+01 -1.91531e+01  9.38213e-01
       O -3.66174e+01 -4.97905e+01 -7.76236e+01
       H -3.82741e+01 -4.88490e+01 -7.76641e+01
       H -3.53065e+01 -4.85667e+01 -7.70939e+01
       O  4.18695e-01  1.51450e+01 -1.02737e+01
       H  1.14184e+00  1.51044e+01 -1.19085e+01
       H -5.93226e-01  1.35879e+01 -1.03638e+01
       O -5.54135e+01  3.20413e+01  6.05296e+01
       H -5.40422e+01  3.31047e+01  5.99228e+01
       H -5.69041e+01  3.28697e+01  5.99251e+01
       O -5.97858e+01  5.82669e+01  2.10830e+01
       H -6.05369e+01  5.80809e+01  1.94395e+01
       H -6.13958e+01  5.82733e+01  2.20372e+01
       O -5.09371e+01 -1.22794e+01 -1.04356e+01
       H -5.18100e+01 -1.06788e+01 -9.70226e+00
       H -5.06731e+01 -1.34819e+01 -9.11720e+00
       O  1.71414e+01  3.71079e+00  3.04060e+01
       H  1.53376e+01  3.64629e+00  3.02444e+01
       H  1.74234e+01  1.89592e+00  3.03811e+01
       O  4.81785e+01  3.39781e+01  1.60777e+02
       H  4.94619e+01  3.49290e+01  1.60037e+02
       H  4.74375e+01  3.52480e+01  1.61851e+02
       O  7.73368e-02 -1.58823e+00  3.25898e+01
       H -1.49940e+00 -1.43902e+00  3.16876e+01
       H -3.79343e-01 -2.68248e+00  3.39289e+01
       O -6.49453e+01  8.27898e+00 -9.03589e+01
       H -6.32682e+01  7.82232e+00 -9.08970e+01
       H -6.57992e+01  6.75914e+00 -8.98470e+01
       O  2.05553e+01  5.48200e+01  1.11515e+02
       H  2.21891e+01  5.54929e+01  1.11783e+02
       H  1.95527e+01  5.60103e+01  1.12457e+02
       O  3.31374e+01 -5.20946e+01  2.12702e+01
       H  3.34011e+01 -5.11992e+01  1.96454e+01
       H  3.28804e+01 -5.08398e+01  2.26662e+01
       O -4.17817e+00  4.35982e+01  1.20750e+02
       H -2.50041e+00  4.35359e+01  1.20155e+02
       H -5.13181e+00  4.45742e+01  1.19624e+02
       O  8.20352e+01  5.84305e+01  6.78063e+00
       H  8.19879e+01  5.71994e+01  5.47489e+00
       H  8.18101e+01  5.99392e+01  5.84453e+00
       O  6.57997e+01 -4.46070e+01  6.46112e+01
       H  6.74116e+01 -4.54809e+01  6.51040e+01
       H  6.62619e+01 -4.29591e+01  6.42695e+01
       O -1.71906e+01  5.51764e-01  6.45071e+01
       H -1.67366e+01  1.47872e+00  6.59609e+01
       H -1.71019e+01  1.83928e+00  6.31606e+01
       O  1.48018e+02  1.89141e+01  6.94136e+00
       H  1.49172e+02  1.80494e+01  5.91201e+00
       H  1.47172e+02  1.75147e+01  7.86996e+00
       O -8.12775e+01  9.35052e+01 -6.78680e+01
       H -8.29033e+01  9.36421e+01 -6.86031e+01
       H -8.04326e+01  9.28653e+01 -6.93764e+01
       O -6.63028e+01 -3.33541e+01 -6.32280e+00
       H -6.48074e+01 -3.42541e+01 -6.87426e+00
       H -6.70905e+01 -3.28244e+01 -7.82127e+00
