192
# CELL(abcABC):   23.19110    23.19110    23.19110    90.00000    90.00000    90.00000  Step:       60000  Bead:       0 x_centroid{atomic_unit}  cell{atomic_unit}
       O -3.74399e+01  4.52902e+01 -3.16683e+01
       H -3.67384e+01  4.54605e+01 -2.99526e+01
       H -3.59706e+01  4.50858e+01 -3.26928e+01
       O  4.72344e+01  9.30344e+01 -4.51581e+01
       H  4.74151e+01  9.18787e+01 -4.37425e+01
       H  4.57347e+01  9.38512e+01 -4.47747e+01
       O  1.91573e+01  4.54128e+01 -4.94727e+01
       H  1.95757e+01  4.65383e+01 -4.80487e+01
       H  1.99249e+01  4.61154e+01 -5.09682e+01
       O  4.94316e+01 -3.90419e+01 -1.01797e+02
       H  4.97265e+01 -3.99980e+01 -1.03307e+02
       H  5.09281e+01 -3.79858e+01 -1.01517e+02
       O  6.16345e+01  1.34290e+02  7.26136e+01
       H  6.11127e+01  1.32692e+02  7.33339e+01
       H  6.30707e+01  1.34038e+02  7.15453e+01
       O -3.16389e+01  2.60864e+01  1.82529e+01
       H -3.07363e+01  2.68132e+01  1.96322e+01
       H -3.27270e+01  2.73892e+01  1.75760e+01
       O  1.40715e+00 -1.10865e+01  3.26414e+00
       H  1.15190e+00 -1.08671e+01  5.05705e+00
       H  6.42530e-01 -1.27679e+01  3.09972e+00
       O -2.10370e+00  1.44303e+01  6.13415e+01
       H -3.63854e+00  1.51165e+01  6.05344e+01
       H -9.78295e-01  1.57547e+01  6.15604e+01
       O  6.90038e+01 -3.58275e+01  8.17251e+01
       H  7.04160e+01 -3.68142e+01  8.24354e+01
       H  6.87869e+01 -3.43947e+01  8.28367e+01
       O -5.03043e+01 -9.10007e+01 -5.43463e+01
       H -5.17799e+01 -9.09340e+01 -5.33878e+01
       H -5.03264e+01 -8.93588e+01 -5.51566e+01
       O -8.79861e+01  4.40346e+01  1.03983e+01
       H -8.98180e+01  4.42992e+01  1.00825e+01
       H -8.74628e+01  4.51921e+01  1.16839e+01
       O -1.09907e+02  8.21904e+01  6.87877e+01
       H -1.09995e+02  8.04369e+01  6.90039e+01
       H -1.09945e+02  8.26110e+01  6.70013e+01
       O  1.08239e+01 -5.48368e+01 -2.85080e+01
       H  1.18545e+01 -5.62401e+01 -2.82364e+01
       H  1.14140e+01 -5.36276e+01 -2.73027e+01
       O  1.11876e+02 -5.39779e+01  2.95449e+01
       H  1.11395e+02 -5.52357e+01  2.83985e+01
       H  1.13591e+02 -5.44007e+01  2.97473e+01
       O  8.41942e+00 -7.31587e+00  2.58913e+01
       H  7.29097e+00 -6.45570e+00  2.70073e+01
       H  7.49360e+00 -8.74477e+00  2.51806e+01
       O -6.92466e+01 -4.12248e+01 -2.85609e+01
       H -6.85612e+01 -4.28658e+01 -2.82132e+01
       H -6.85179e+01 -4.05937e+01 -3.00810e+01
       O  1.94001e+01 -3.99107e+01 -3.39153e+01
       H  1.97177e+01 -4.04890e+01 -3.55654e+01
       H  2.02725e+01 -3.82743e+01 -3.40029e+01
       O -2.21641e+01  8.93123e+01 -7.82210e+01
       H -2.08727e+01  8.81339e+01 -7.87227e+01
       H -2.34396e+01  8.89903e+01 -7.94383e+01
       O  9.92902e+01  5.27842e+00  3.08605e+01
       H  9.89092e+01  6.73198e+00  2.98221e+01
       H  9.94371e+01  3.91383e+00  2.97100e+01
       O  9.73981e+01  6.27942e+01 -1.03922e+01
       H  9.78263e+01  6.15650e+01 -1.17021e+01
       H  9.80075e+01  6.43764e+01 -1.10867e+01
       O -1.77285e+01  6.46348e+01 -1.70260e+01
       H -1.73743e+01  6.55346e+01 -1.54564e+01
       H -1.95876e+01  6.47093e+01 -1.72930e+01
       O  1.16905e+01  6.58862e+00  8.58587e+01
       H  9.93769e+00  6.47305e+00  8.62197e+01
       H  1.19299e+01  6.86960e+00  8.40983e+01
       O  4.95714e+00  7.12068e+01 -5.49718e+01
       H  6.60040e+00  7.02518e+01 -5.48596e+01
       H  3.90536e+00  7.05277e+01 -5.35612e+01
       O  1.21872e+02 -3.18826e+01  4.05885e+01
       H  1.21422e+02 -3.10169e+01  3.90904e+01
       H  1.23670e+02 -3.17513e+01  4.08495e+01
       O -6.37954e+01  3.29539e+01  2.84033e+01
       H -6.24334e+01  3.32160e+01  2.72220e+01
       H -6.53159e+01  3.35348e+01  2.75762e+01
       O  4.71435e+01 -7.99135e+00  2.22714e+01
       H  4.69985e+01 -9.42938e+00  2.34719e+01
       H  4.88347e+01 -7.67759e+00  2.25604e+01
       O -4.08207e+01 -2.06672e+01  2.60442e+01
       H -4.24200e+01 -2.12771e+01  2.54002e+01
       H -3.97350e+01 -2.20891e+01  2.57894e+01
       O  4.04790e+01  1.57073e+01  3.45633e+01
       H  4.11746e+01  1.56997e+01  3.28023e+01
       H  3.86898e+01  1.60151e+01  3.41948e+01
       O  8.69100e+01 -1.76689e+01 -1.23831e+00
       H  8.61220e+01 -1.64940e+01  2.65349e-02
       H  8.75563e+01 -1.64863e+01 -2.38218e+00
       O -4.12830e-01 -6.06259e+01  2.12729e+01
       H -1.45221e+00 -5.92859e+01  2.05835e+01
       H -3.21909e-01 -6.18538e+01  1.97925e+01
       O -8.83660e+01  3.07808e+01  6.93886e+01
       H -9.00195e+01  3.09771e+01  6.87148e+01
       H -8.86022e+01  2.94644e+01  7.06114e+01
       O  1.23444e+00 -5.65969e+01  3.13638e+01
       H  5.99445e-01 -5.73838e+01  3.30233e+01
       H  2.81071e+00 -5.58196e+01  3.16434e+01
       O -5.75199e+01  4.05111e+01 -1.15416e+00
       H -5.88204e+01  3.95438e+01 -3.68065e-01
       H -5.65388e+01  4.11066e+01  2.07864e-01
       O  1.14607e+01  3.59677e+01 -1.03006e+01
       H  1.31272e+01  3.52617e+01 -1.01134e+01
       H  1.09527e+01  3.64610e+01 -8.66231e+00
       O -7.86105e+01 -3.64242e+01 -3.86862e+01
       H -7.94336e+01 -3.71261e+01 -3.71619e+01
       H -7.85187e+01 -3.79086e+01 -3.97978e+01
       O  5.88986e+01 -2.94300e+01 -3.63156e+01
       H  5.79804e+01 -3.08159e+01 -3.56076e+01
       H  5.93149e+01 -3.01636e+01 -3.78762e+01
       O  3.38687e+01  2.89553e+01  4.81217e+01
       H  3.39750e+01  2.78661e+01  4.94816e+01
       H  3.23656e+01  2.86389e+01  4.73302e+01
       O -3.02778e+01  8.01807e+01  8.29696e+01
       H -2.94396e+01  8.13131e+01  8.18573e+01
       H -2.93702e+01  7.86097e+01  8.27944e+01
       O -3.64947e+01  1.17279e+02  8.92384e+01
       H -3.48837e+01  1.17501e+02  8.84872e+01
       H -3.73925e+01  1.18721e+02  8.84190e+01
       O  3.68419e+01  2.13525e+01  3.59060e+01
       H  3.76762e+01  2.08352e+01  3.74366e+01
       H  3.66048e+01  1.97248e+01  3.49962e+01
       O  6.70278e+01  4.36593e+00 -1.58094e+01
       H  6.66961e+01  2.75729e+00 -1.65283e+01
       H  6.79389e+01  5.19137e+00 -1.71668e+01
       O  1.80773e+02 -3.43792e+01  1.87544e+01
       H  1.80338e+02 -3.28065e+01  1.94619e+01
       H  1.81313e+02 -3.40412e+01  1.70402e+01
       O -3.03288e+01 -2.75016e+01 -2.91990e+01
       H -3.16786e+01 -2.80131e+01 -2.80569e+01
       H -2.93652e+01 -2.62675e+01 -2.82084e+01
       O  2.34960e+01 -2.67933e+01 -4.15411e+01
       H  2.20386e+01 -2.70387e+01 -4.25062e+01
       H  2.31902e+01 -2.56497e+01 -4.02294e+01
       O  1.91388e+01 -2.12505e+01  7.14309e+01
       H  1.86017e+01 -1.98941e+01  7.03410e+01
       H  1.76707e+01 -2.17883e+01  7.22993e+01
       O  4.07521e+01 -4.77364e+01 -1.70256e+01
       H  4.10938e+01 -4.79768e+01 -1.53032e+01
       H  4.03995e+01 -4.94984e+01 -1.75515e+01
       O -5.05468e+01 -4.84344e+01 -8.15051e+01
       H -5.16252e+01 -4.98252e+01 -8.10883e+01
       H -5.04465e+01 -4.73400e+01 -8.00456e+01
       O -1.10238e+01 -1.04596e-01  2.68650e+01
       H -9.42438e+00 -1.01523e+00  2.69608e+01
       H -1.19583e+01 -6.52396e-01  2.54763e+01
       O -5.50695e+01  5.59601e+01  4.73274e+01
       H -5.55327e+01  5.60437e+01  4.55657e+01
       H -5.62960e+01  5.47277e+01  4.79597e+01
       O -6.95694e+01  6.90717e+01 -1.42656e+01
       H -7.09589e+01  6.88007e+01 -1.30947e+01
       H -6.90493e+01  7.08571e+01 -1.38577e+01
       O -3.36704e+01  1.43707e+01 -1.75519e+01
       H -3.33706e+01  1.26231e+01 -1.68948e+01
       H -3.52640e+01  1.45463e+01 -1.85299e+01
       O  6.69224e+00  5.14934e+00  4.15512e+01
       H  5.25595e+00  4.82180e+00  4.05049e+01
       H  6.00463e+00  6.32785e+00  4.26877e+01
       O  1.56910e+01  5.33874e+00  1.67416e+02
       H  1.74146e+01  5.51769e+00  1.67991e+02
       H  1.48618e+01  4.28593e+00  1.68642e+02
       O -1.65673e+01 -9.52154e+00  5.51208e+01
       H -1.65046e+01 -8.42206e+00  5.36904e+01
       H -1.68793e+01 -1.12039e+01  5.43265e+01
       O -7.91198e+01  1.05206e+01 -7.34978e+01
       H -7.96815e+01  9.01135e+00 -7.43619e+01
       H -7.73092e+01  1.07046e+01 -7.38539e+01
       O  1.35358e+01  4.82479e+01  1.24899e+02
       H  1.27730e+01  4.72247e+01  1.23572e+02
       H  1.37271e+01  4.72152e+01  1.26536e+02
       O -4.57661e+00 -5.90055e+01  2.72276e+01
       H -5.39486e+00 -5.88198e+01  2.88663e+01
       H -5.68507e+00 -5.93134e+01  2.58274e+01
       O -2.06916e+01  2.70732e+01  8.03126e+01
       H -1.93783e+01  2.76249e+01  7.92259e+01
       H -2.00150e+01  2.60985e+01  8.16468e+01
       O  8.94376e+01  4.09953e+01  3.01161e-01
       H  8.97681e+01  4.24229e+01 -7.34818e-01
       H  9.10498e+01  4.02014e+01  1.33265e-01
       O  7.65918e+01 -3.60118e+01  6.07476e+01
       H  7.63747e+01 -3.45345e+01  6.17164e+01
       H  7.80139e+01 -3.57576e+01  5.97962e+01
       O -2.09067e+01  2.31234e+01  4.16998e+01
       H -2.11043e+01  2.25069e+01  4.33509e+01
       H -2.16474e+01  2.18623e+01  4.05928e+01
       O  1.73967e+02  6.00068e+00 -1.21615e+01
       H  1.72349e+02  5.61158e+00 -1.29427e+01
       H  1.75109e+02  4.72500e+00 -1.29119e+01
       O -7.04846e+01  1.00070e+02 -6.63960e+01
       H -7.02291e+01  1.00433e+02 -6.81898e+01
       H -7.18928e+01  1.01244e+02 -6.61105e+01
       O -6.12720e+01 -2.49081e+01  5.10247e-01
       H -6.05494e+01 -2.65434e+01  4.36601e-01
       H -6.08666e+01 -2.42416e+01 -1.03135e+00
