192
# CELL(abcABC):   23.96729    23.96729    23.96729    90.00000    90.00000    90.00000  Step:       60000  Bead:       0 x_centroid{atomic_unit}  cell{atomic_unit}
       O -3.18390e+01  4.41606e+01 -1.79361e+01
       H -3.08801e+01  4.30195e+01 -1.89020e+01
       H -3.16319e+01  4.58845e+01 -1.85967e+01
       O  4.70975e+01  9.53944e+01 -4.05631e+01
       H  4.57295e+01  9.64131e+01 -4.06399e+01
       H  4.74163e+01  9.52864e+01 -3.87889e+01
       O  8.85928e+00  2.89525e+01 -4.54088e+01
       H  7.06151e+00  2.90420e+01 -4.58989e+01
       H  9.46199e+00  2.72522e+01 -4.51177e+01
       O  5.15519e+01 -4.07153e+01 -8.94204e+01
       H  5.17593e+01 -4.14614e+01 -9.11471e+01
       H  5.26216e+01 -4.16477e+01 -8.83232e+01
       O  5.13756e+01  1.35565e+02  7.64651e+01
       H  5.22675e+01  1.34081e+02  7.69878e+01
       H  5.17319e+01  1.35674e+02  7.46586e+01
       O -3.76699e+01  4.02566e+01  1.60379e+01
       H -3.59789e+01  3.99079e+01  1.62294e+01
       H -3.86781e+01  3.87958e+01  1.65563e+01
       O  1.11480e+01 -1.19077e+01  5.83542e+00
       H  1.14231e+01 -1.36440e+01  5.21836e+00
       H  9.27630e+00 -1.19200e+01  5.67013e+00
       O  1.50411e+01  1.28906e+01  5.75221e+01
       H  1.64248e+01  1.34399e+01  5.65697e+01
       H  1.37174e+01  1.27801e+01  5.62399e+01
       O  6.97279e+01 -4.54022e+01  9.73242e+01
       H  7.01010e+01 -4.38852e+01  9.83865e+01
       H  7.01786e+01 -4.49145e+01  9.55492e+01
       O -5.66119e+01 -1.01785e+02 -6.13752e+01
       H -5.61318e+01 -1.01114e+02 -6.29264e+01
       H -5.69776e+01 -1.03495e+02 -6.16554e+01
       O -9.19207e+01  6.00427e+01  1.21037e+01
       H -9.05351e+01  5.97962e+01  1.33371e+01
       H -9.30866e+01  5.86592e+01  1.24912e+01
       O -8.69501e+01  8.95426e+01  5.91186e+01
       H -8.87027e+01  8.97305e+01  5.92065e+01
       H -8.64989e+01  8.95004e+01  6.08458e+01
       O -1.17234e+00 -5.43467e+01 -2.88080e+01
       H -1.33895e+00 -5.46622e+01 -2.70607e+01
       H -1.93909e+00 -5.27375e+01 -2.90901e+01
       O  1.01597e+02 -5.00309e+01  2.27797e+01
       H  1.02232e+02 -4.84695e+01  2.23535e+01
       H  1.00129e+02 -4.94640e+01  2.36197e+01
       O -4.20535e+00 -9.43975e+00  3.16236e+01
       H -3.33729e+00 -1.02176e+01  3.01463e+01
       H -2.82092e+00 -9.33221e+00  3.28401e+01
       O -6.85351e+01 -3.65577e+01 -2.86074e+01
       H -6.79563e+01 -3.50304e+01 -2.77444e+01
       H -7.02983e+01 -3.63728e+01 -2.82233e+01
       O  2.94483e+01 -4.57151e+01 -5.17823e+01
       H  2.83656e+01 -4.43053e+01 -5.15086e+01
       H  2.86401e+01 -4.66007e+01 -5.32598e+01
       O -2.17929e+01  9.56287e+01 -7.00028e+01
       H -2.35166e+01  9.60478e+01 -7.01236e+01
       H -2.15344e+01  9.55770e+01 -6.81951e+01
       O  9.00120e+01  2.91917e+01  3.12359e+01
       H  8.84444e+01  2.99395e+01  3.05809e+01
       H  8.95847e+01  2.92455e+01  3.30681e+01
       O  1.01490e+02  5.97235e+01 -1.68556e+01
       H  1.01191e+02  6.02319e+01 -1.50679e+01
       H  1.01028e+02  5.79156e+01 -1.68916e+01
       O -2.58202e+01  5.27812e+01 -3.21330e+00
       H -2.61641e+01  5.21133e+01 -4.88214e+00
       H -2.73015e+01  5.37308e+01 -2.90512e+00
       O  1.19179e+01  1.53450e+01  7.31905e+01
       H  1.15749e+01  1.66017e+01  7.44315e+01
       H  1.15774e+01  1.37305e+01  7.39804e+01
       O -2.83355e+00  7.65990e+01 -5.65662e+01
       H -4.35310e+00  7.69551e+01 -5.75427e+01
       H -1.48320e+00  7.60069e+01 -5.75118e+01
       O  1.13532e+02 -2.30964e+01  5.18958e+01
       H  1.13124e+02 -2.15632e+01  5.29206e+01
       H  1.14859e+02 -2.23907e+01  5.08273e+01
       O -6.63697e+01  4.73785e+01  3.08459e+01
       H -6.75083e+01  4.60244e+01  3.09324e+01
       H -6.52399e+01  4.72886e+01  2.94664e+01
       O  4.97623e+01 -2.86213e+01  7.63084e+00
       H  4.89297e+01 -2.71264e+01  6.90945e+00
       H  5.06496e+01 -2.96551e+01  6.36351e+00
       O -4.39111e+01 -1.90744e+01  2.58971e+01
       H -4.42020e+01 -1.82306e+01  2.43164e+01
       H -4.47017e+01 -2.06610e+01  2.59806e+01
       O  4.06683e+01  4.64680e+00  3.69821e+01
       H  3.90558e+01  5.52876e+00  3.68796e+01
       H  4.03466e+01  2.96008e+00  3.64137e+01
       O  9.61257e+01 -1.49459e+01 -1.03810e+01
       H  9.66158e+01 -1.64245e+01 -1.14856e+01
       H  9.50229e+01 -1.57300e+01 -9.24589e+00
       O -8.21057e+00 -7.31091e+01  2.32815e+01
       H -8.23114e+00 -7.22058e+01  2.48538e+01
       H -8.59512e+00 -7.18280e+01  2.20555e+01
       O -8.44173e+01  3.38029e+01  6.80306e+01
       H -8.53237e+01  3.25953e+01  6.69595e+01
       H -8.30024e+01  3.42263e+01  6.70812e+01
       O -7.69991e+00 -7.30525e+01  1.72563e+01
       H -7.83509e+00 -7.26920e+01  1.55477e+01
       H -9.19748e+00 -7.23522e+01  1.80423e+01
       O -5.69726e+01  4.74675e+01  1.21931e+01
       H -5.84694e+01  4.70011e+01  1.30334e+01
       H -5.63989e+01  4.58900e+01  1.16018e+01
       O  1.15152e+00  4.87003e+01 -7.08058e+00
       H  7.32916e-01  4.81342e+01 -5.46913e+00
       H  4.69759e-02  4.76714e+01 -7.97291e+00
       O -8.95961e+01 -4.42452e+01 -3.79764e+01
       H -8.88913e+01 -4.49396e+01 -3.63758e+01
       H -8.92072e+01 -4.54076e+01 -3.92844e+01
       O  5.78815e+01 -4.90408e+01 -3.47015e+01
       H  5.76811e+01 -4.96598e+01 -3.29577e+01
       H  5.75829e+01 -5.05427e+01 -3.55820e+01
       O  3.94920e+01  3.52612e+01  4.13921e+01
       H  4.08009e+01  3.46006e+01  4.24075e+01
       H  3.97236e+01  3.70722e+01  4.13884e+01
       O -2.30603e+01  7.64777e+01  8.27302e+01
       H -2.37136e+01  7.50579e+01  8.18415e+01
       H -2.12989e+01  7.61769e+01  8.31705e+01
       O -3.44545e+01  1.26867e+02  9.60143e+01
       H -3.49793e+01  1.28270e+02  9.49331e+01
       H -3.57725e+01  1.25735e+02  9.62356e+01
       O  3.15090e+01  1.20603e+01  4.00267e+01
       H  3.01394e+01  1.16694e+01  4.11170e+01
       H  3.20444e+01  1.04054e+01  3.93205e+01
       O  6.00293e+01  9.12766e-01 -2.84125e+01
       H  5.90689e+01  2.46497e+00 -2.85304e+01
       H  5.88726e+01 -3.79851e-01 -2.85950e+01
       O  1.95567e+02 -2.93976e+01  1.25207e+01
       H  1.94669e+02 -3.08429e+01  1.33249e+01
       H  1.94845e+02 -2.92721e+01  1.08376e+01
       O -2.54246e+01 -1.72824e+01 -1.95079e+01
       H -2.69242e+01 -1.74811e+01 -1.84531e+01
       H -2.39919e+01 -1.72350e+01 -1.83833e+01
       O  1.92555e+01 -3.02693e+01 -3.41121e+01
       H  1.80275e+01 -3.04305e+01 -3.54604e+01
       H  2.07794e+01 -3.09989e+01 -3.46943e+01
       O  2.68070e+01 -1.72889e+01  6.92798e+01
       H  2.73318e+01 -1.57296e+01  6.86165e+01
       H  2.50462e+01 -1.76055e+01  6.88406e+01
       O  3.31854e+01 -7.50442e+01 -5.66356e+00
       H  3.40070e+01 -7.65782e+01 -6.04766e+00
       H  3.16710e+01 -7.53186e+01 -4.77496e+00
       O -4.86451e+01 -5.62024e+01 -8.46349e+01
       H -4.79113e+01 -5.78752e+01 -8.47075e+01
       H -4.85675e+01 -5.53066e+01 -8.61868e+01
       O -2.70765e+00  1.56873e+01  2.36979e+01
       H -2.63519e+00  1.47963e+01  2.53433e+01
       H -4.40858e+00  1.57022e+01  2.32029e+01
       O -5.09719e+01  4.67358e+01  4.44911e+01
       H -5.26348e+01  4.68819e+01  4.38092e+01
       H -5.15575e+01  4.67261e+01  4.61945e+01
       O -6.27220e+01  5.32474e+01 -6.15711e+00
       H -6.41797e+01  5.28611e+01 -5.33657e+00
       H -6.31761e+01  5.36919e+01 -7.81931e+00
       O -3.51741e+01  2.55576e+01 -1.59981e+01
       H -3.62794e+01  2.44693e+01 -1.70290e+01
       H -3.46886e+01  2.47152e+01 -1.44469e+01
       O  2.26426e+01  2.17427e+01  3.68601e+01
       H  2.41358e+01  2.07283e+01  3.69594e+01
       H  2.12972e+01  2.06018e+01  3.73801e+01
       O  1.92493e+01  9.02846e+00  1.65037e+02
       H  1.82956e+01  9.70205e+00  1.66375e+02
       H  1.99262e+01  1.03205e+01  1.64076e+02
       O  3.87628e+00 -8.08947e+00  4.72367e+01
       H  3.93224e+00 -6.46333e+00  4.62847e+01
       H  5.50914e+00 -8.75024e+00  4.69641e+01
       O -7.32720e+01  1.25156e+01 -9.19680e+01
       H -7.15930e+01  1.32004e+01 -9.16210e+01
       H -7.31932e+01  1.06857e+01 -9.21484e+01
       O  8.84922e+00  5.57912e+01  1.32925e+02
       H  1.05704e+01  5.65544e+01  1.32589e+02
       H  8.54209e+00  5.49922e+01  1.31406e+02
       O -9.74210e+00 -6.46132e+01  2.90952e+01
       H -1.09116e+01 -6.60130e+01  2.92883e+01
       H -9.62082e+00 -6.43588e+01  2.73091e+01
       O -3.40904e+01  3.32420e+01  8.46017e+01
       H -3.35223e+01  3.45107e+01  8.34107e+01
       H -3.30779e+01  3.34130e+01  8.60396e+01
       O  8.78642e+01  6.52798e+01 -6.69236e-01
       H  8.63468e+01  6.44795e+01  1.37673e-01
       H  8.77422e+01  6.70428e+01 -6.16588e-01
       O  6.98921e+01 -3.56013e+01  6.60736e+01
       H  6.98157e+01 -3.38014e+01  6.59940e+01
       H  7.02609e+01 -3.61176e+01  6.43466e+01
       O -8.54182e+00  1.63428e+01  4.19027e+01
       H -7.58328e+00  1.73084e+01  4.07379e+01
       H -8.35831e+00  1.71237e+01  4.35594e+01
       O  1.78365e+02  1.85369e+01 -1.80458e+01
       H  1.80046e+02  1.89999e+01 -1.75577e+01
       H  1.77558e+02  1.79619e+01 -1.65595e+01
       O -6.36502e+01  8.52512e+01 -4.96472e+01
       H -6.26538e+01  8.41365e+01 -5.07807e+01
       H -6.24825e+01  8.61616e+01 -4.85979e+01
       O -6.25700e+01 -2.51201e+01  2.88409e+00
       H -6.34589e+01 -2.58717e+01  1.49653e+00
       H -6.19117e+01 -2.66100e+01  3.84669e+00
