192
# CELL(abcABC):   23.43997    23.43997    23.43997    90.00000    90.00000    90.00000  Step:       60000  Bead:       0 x_centroid{atomic_unit}  cell{atomic_unit}
       O -3.39272e+01  5.13669e+01 -1.21490e+01
       H -3.56790e+01  5.16103e+01 -1.16232e+01
       H -3.29968e+01  5.08967e+01 -1.06949e+01
       O  4.68087e+01  1.12353e+02 -5.23731e+01
       H  4.62891e+01  1.12185e+02 -5.06001e+01
       H  4.66626e+01  1.10714e+02 -5.31346e+01
       O  3.12091e+01  2.25857e+01 -5.56665e+01
       H  3.09245e+01  2.19979e+01 -5.73633e+01
       H  2.98760e+01  2.36671e+01 -5.54594e+01
       O  4.94249e+01 -4.32979e+01 -8.32557e+01
       H  4.91814e+01 -4.34437e+01 -8.49875e+01
       H  4.99516e+01 -4.50009e+01 -8.28335e+01
       O  5.22390e+01  1.36106e+02  6.52482e+01
       H  5.04547e+01  1.36443e+02  6.49826e+01
       H  5.27763e+01  1.37022e+02  6.38649e+01
       O -4.33492e+01  2.51590e+01  4.67509e+00
       H -4.39177e+01  2.63643e+01  3.47911e+00
       H -4.33441e+01  2.35572e+01  3.69707e+00
       O  1.64310e+01 -3.14479e+00  7.47385e+00
       H  1.74492e+01 -2.61522e+00  6.15924e+00
       H  1.56520e+01 -4.64680e+00  6.93625e+00
       O  8.01316e+00  9.04015e+00  4.77150e+01
       H  9.69962e+00  8.54338e+00  4.70901e+01
       H  8.28843e+00  1.08654e+01  4.78489e+01
       O  7.31083e+01 -3.55174e+01  8.85380e+01
       H  7.13794e+01 -3.55237e+01  8.82575e+01
       H  7.37237e+01 -3.50708e+01  8.69402e+01
       O -5.97270e+01 -9.86909e+01 -4.47233e+01
       H -6.07272e+01 -1.00160e+02 -4.43468e+01
       H -6.10026e+01 -9.78214e+01 -4.57755e+01
       O -8.20635e+01  4.55306e+01  1.78366e+01
       H -8.37565e+01  4.58274e+01  1.72900e+01
       H -8.15406e+01  4.41665e+01  1.66944e+01
       O -7.93375e+01  7.32853e+01  6.36226e+01
       H -7.81339e+01  7.23496e+01  6.25890e+01
       H -8.05297e+01  7.19594e+01  6.39555e+01
       O  1.66137e+01 -7.85907e+01 -2.97978e+01
       H  1.74137e+01 -7.74107e+01 -2.88224e+01
       H  1.77313e+01 -7.88101e+01 -3.12541e+01
       O  8.94776e+01 -6.23435e+01  1.45837e+01
       H  8.84706e+01 -6.20660e+01  1.30528e+01
       H  8.82689e+01 -6.26632e+01  1.59430e+01
       O -3.75590e-01 -5.97653e+00  2.30791e+01
       H -1.94247e+00 -6.63499e+00  2.37211e+01
       H  7.52652e-01 -7.39349e+00  2.32087e+01
       O -5.78567e+01 -5.25418e+01 -3.16958e+01
       H -5.80478e+01 -5.32418e+01 -3.32881e+01
       H -5.62916e+01 -5.32307e+01 -3.09460e+01
       O  2.81423e+00 -3.35384e+01 -4.74372e+01
       H  2.96481e+00 -3.41575e+01 -4.91245e+01
       H  2.78095e+00 -3.50863e+01 -4.64292e+01
       O -2.24514e+01  8.98406e+01 -6.07652e+01
       H -2.30069e+01  9.13050e+01 -6.16836e+01
       H -2.34949e+01  8.95473e+01 -5.94651e+01
       O  9.32489e+01  2.30874e+01  1.59362e+01
       H  9.47708e+01  2.39259e+01  1.64314e+01
       H  9.32492e+01  2.15515e+01  1.68051e+01
       O  1.14679e+02  5.84339e+01 -5.36703e+00
       H  1.14256e+02  5.74428e+01 -6.76445e+00
       H  1.13473e+02  5.96896e+01 -5.19707e+00
       O -2.97132e+01  5.71915e+01  1.19150e+00
       H -3.10984e+01  5.69844e+01  6.86890e-02
       H -3.00028e+01  5.59666e+01  2.66183e+00
       O  8.22214e+00  3.10920e+01  7.60114e+01
       H  8.50541e+00  2.93259e+01  7.54758e+01
       H  8.12815e+00  3.16509e+01  7.42418e+01
       O  2.66550e+01  7.48622e+01 -4.64585e+01
       H  2.65503e+01  7.66302e+01 -4.57954e+01
       H  2.49170e+01  7.46185e+01 -4.67813e+01
       O  1.06115e+02 -3.21250e+01  5.63622e+01
       H  1.04284e+02 -3.19064e+01  5.61085e+01
       H  1.06235e+02 -3.38732e+01  5.62271e+01
       O -7.20512e+01  5.00426e+01  2.52736e+01
       H -7.26965e+01  4.84271e+01  2.58398e+01
       H -7.32236e+01  5.03022e+01  2.39766e+01
       O  2.92937e+01 -3.65432e+01  1.35357e+01
       H  2.96342e+01 -3.80862e+01  1.25684e+01
       H  3.08605e+01 -3.62672e+01  1.43502e+01
       O -3.41659e+01 -1.44618e+01  8.49356e+00
       H -3.56499e+01 -1.45687e+01  7.42340e+00
       H -3.43512e+01 -1.59463e+01  9.59169e+00
       O  4.06945e+01  1.00653e+01  3.35893e+01
       H  4.21096e+01  9.49078e+00  3.25500e+01
       H  3.91179e+01  9.53962e+00  3.27512e+01
       O  9.92296e+01 -2.44214e+01 -1.34553e+01
       H  9.78412e+01 -2.55465e+01 -1.34261e+01
       H  1.00137e+02 -2.50734e+01 -1.49820e+01
       O -1.40276e+00 -6.09234e+01  7.12687e+00
       H -4.70308e-01 -6.12676e+01  8.76562e+00
       H -1.39722e+00 -5.91716e+01  6.94267e+00
       O -9.31750e+01  3.26737e+01  7.23698e+01
       H -9.40602e+01  3.24743e+01  7.39495e+01
       H -9.44172e+01  3.23588e+01  7.09651e+01
       O  3.32622e+00 -4.97446e+01  2.59741e+01
       H  4.73817e+00 -4.98932e+01  2.47315e+01
       H  2.10636e+00 -5.09648e+01  2.52521e+01
       O -5.78988e+01  4.76410e+01  7.47383e+00
       H -5.67967e+01  4.62435e+01  7.54863e+00
       H -5.72278e+01  4.88691e+01  8.71485e+00
       O  2.20906e+01  3.81124e+01 -1.63367e+01
       H  2.09766e+01  3.94313e+01 -1.56120e+01
       H  2.38527e+01  3.84841e+01 -1.61339e+01
       O -8.57846e+01 -3.24981e+01 -4.59070e+01
       H -8.47085e+01 -3.23013e+01 -4.74080e+01
       H -8.75786e+01 -3.27147e+01 -4.62589e+01
       O  3.95019e+01 -3.99814e+01 -4.18796e+01
       H  3.82973e+01 -3.90985e+01 -4.07210e+01
       H  4.06540e+01 -4.08142e+01 -4.09883e+01
       O  2.25130e+01  2.34295e+01  5.32602e+01
       H  2.41557e+01  2.41168e+01  5.27568e+01
       H  2.19056e+01  2.26505e+01  5.17517e+01
       O -1.05590e+01  7.83774e+01  9.25381e+01
       H -1.03203e+01  7.85082e+01  9.07915e+01
       H -1.03575e+01  7.66013e+01  9.28939e+01
       O -2.88702e+01  1.36082e+02  9.09568e+01
       H -3.00531e+01  1.37439e+02  9.12919e+01
       H -2.91072e+01  1.34612e+02  9.20902e+01
       O  3.05990e+01  1.57471e+01  3.27922e+01
       H  2.98034e+01  1.45254e+01  3.17518e+01
       H  3.02843e+01  1.73439e+01  3.18497e+01
       O  4.34882e+01  7.78383e+00 -2.52388e+01
       H  4.22410e+01  8.56635e+00 -2.40439e+01
       H  4.37712e+01  9.02239e+00 -2.65585e+01
       O  1.82546e+02 -2.50249e+01  2.61710e+00
       H  1.83309e+02 -2.61137e+01  1.44630e+00
       H  1.81064e+02 -2.45563e+01  1.74265e+00
       O -4.62423e+01 -8.99832e+00 -3.26775e+01
       H -4.52699e+01 -8.62280e+00 -3.41280e+01
       H -4.79859e+01 -9.25966e+00 -3.31768e+01
       O  8.91396e+00 -2.07461e+01 -4.28236e+01
       H  1.01821e+01 -2.13100e+01 -4.16350e+01
       H  7.11096e+00 -2.09587e+01 -4.22388e+01
       O  1.88010e+01 -2.06010e+01  6.77434e+01
       H  1.86209e+01 -1.88145e+01  6.79367e+01
       H  1.97747e+01 -2.06985e+01  6.62337e+01
       O  2.43087e+01 -6.36936e+01 -6.07341e+00
       H  2.29687e+01 -6.30709e+01 -7.22494e+00
       H  2.54591e+01 -6.23442e+01 -5.65351e+00
       O -4.30359e+01 -6.82226e+01 -7.66334e+01
       H -4.40288e+01 -6.66346e+01 -7.66407e+01
       H -4.21913e+01 -6.82548e+01 -7.49872e+01
       O -1.13012e+01  2.66901e+01  2.33574e+01
       H -1.19401e+01  2.64834e+01  2.49678e+01
       H -1.05336e+01  2.51612e+01  2.29028e+01
       O -3.98549e+01  4.42350e+01  4.61512e+01
       H -4.00271e+01  4.34905e+01  4.45014e+01
       H -3.98295e+01  4.60000e+01  4.57876e+01
       O -7.62528e+01  6.22792e+01  1.01769e+00
       H -7.60320e+01  6.04849e+01  1.18162e+00
       H -7.76133e+01  6.24440e+01  2.29823e+00
       O -3.23866e+01  1.59824e+01  4.87527e+00
       H -3.38580e+01  1.67503e+01  4.05752e+00
       H -3.31513e+01  1.53852e+01  6.47868e+00
       O  1.01219e+00  8.60097e+00  3.49475e+01
       H  2.06237e+00  9.17160e+00  3.62541e+01
       H  1.40038e+00  6.83142e+00  3.49953e+01
       O  1.92552e+01  1.45918e+01  1.76927e+02
       H  1.83487e+01  1.32564e+01  1.75903e+02
       H  1.86429e+01  1.62723e+01  1.76465e+02
       O -8.53141e+00 -5.28237e-01  4.51573e+01
       H -7.35610e+00  7.59135e-01  4.45808e+01
       H -9.45924e+00 -1.07282e+00  4.35726e+01
       O -7.36654e+01  4.53152e+00 -8.56115e+01
       H -7.28606e+01  2.91626e+00 -8.59895e+01
       H -7.28413e+01  5.83703e+00 -8.64794e+01
       O  7.41255e+00  5.29869e+01  1.28067e+02
       H  7.46068e+00  5.41614e+01  1.26602e+02
       H  6.03602e+00  5.17393e+01  1.27989e+02
       O  1.47934e+01 -6.24105e+01  4.09006e+01
       H  1.44724e+01 -6.41160e+01  4.09070e+01
       H  1.36259e+01 -6.16498e+01  3.97252e+01
       O -4.89368e+00  2.52304e+01  8.40403e+01
       H -4.51060e+00  2.64463e+01  8.26566e+01
       H -3.48998e+00  2.49198e+01  8.50253e+01
       O  1.01149e+02  4.92204e+01 -1.87648e+00
       H  1.00199e+02  4.98690e+01 -5.24712e-01
       H  1.02750e+02  4.96066e+01 -1.25428e+00
       O  5.84589e+01 -3.58703e+01  6.16418e+01
       H  5.88746e+01 -3.46621e+01  6.04748e+01
       H  5.81607e+01 -3.53704e+01  6.33397e+01
       O -1.42432e+01  1.49739e+01  4.21642e+01
       H -1.58610e+01  1.57759e+01  4.20497e+01
       H -1.32758e+01  1.61296e+01  4.11545e+01
       O  1.68787e+02  1.21143e+01 -1.71333e+01
       H  1.69120e+02  1.03237e+01 -1.70043e+01
       H  1.67161e+02  1.20719e+01 -1.79550e+01
       O -6.27291e+01  9.03185e+01 -4.05895e+01
       H -6.12067e+01  9.03799e+01 -4.14118e+01
       H -6.40083e+01  9.07556e+01 -4.18166e+01
       O -5.11216e+01 -2.68511e+01  1.19221e+01
       H -5.24969e+01 -2.65039e+01  1.07738e+01
       H -5.08228e+01 -2.51957e+01  1.25942e+01
