192
# CELL(abcABC):   23.40135    23.40135    23.40135    90.00000    90.00000    90.00000  Step:       60000  Bead:       0 x_centroid{atomic_unit}  cell{atomic_unit}
       O -2.14603e+01  6.50851e+01  5.17265e+00
       H -2.25421e+01  6.66156e+01  4.86631e+00
       H -2.22130e+01  6.40947e+01  6.49510e+00
       O  4.46781e+01  7.68118e+01 -3.54354e+01
       H  4.43794e+01  7.77696e+01 -3.69359e+01
       H  4.52400e+01  7.81113e+01 -3.42617e+01
       O  1.18637e+01  3.67433e+01 -7.21253e+01
       H  1.32364e+01  3.58339e+01 -7.12318e+01
       H  1.11195e+01  3.55452e+01 -7.32286e+01
       O  6.84939e+01 -4.69882e+01 -7.45256e+01
       H  6.90939e+01 -4.54702e+01 -7.54023e+01
       H  6.68543e+01 -4.71187e+01 -7.52272e+01
       O  4.60004e+01  1.33351e+02  6.73996e+01
       H  4.43354e+01  1.33136e+02  6.79026e+01
       H  4.62357e+01  1.34857e+02  6.83294e+01
       O -4.22501e+01  3.26849e+01 -6.14221e+00
       H -4.31017e+01  3.23548e+01 -4.50592e+00
       H -4.20186e+01  3.44741e+01 -6.33675e+00
       O  4.03741e+00 -1.38826e+01  6.97226e+00
       H  2.93659e+00 -1.45729e+01  8.27222e+00
       H  3.32603e+00 -1.24202e+01  6.16928e+00
       O -3.29713e+01 -6.60824e+00  6.54739e+01
       H -3.33589e+01 -7.37579e+00  6.38354e+01
       H -3.36294e+01 -7.72287e+00  6.67396e+01
       O  8.62540e+01 -5.87517e+01  7.83349e+01
       H  8.64911e+01 -6.04542e+01  7.76533e+01
       H  8.43726e+01 -5.88452e+01  7.85873e+01
       O -6.49338e+01 -8.90250e+01 -3.20479e+01
       H -6.61670e+01 -8.88239e+01 -3.33126e+01
       H -6.53455e+01 -8.74350e+01 -3.11732e+01
       O -8.87440e+01  4.78098e+01  4.40502e+00
       H -8.95749e+01  4.91965e+01  3.59039e+00
       H -8.82931e+01  4.67753e+01  3.02976e+00
       O -9.03082e+01  9.31432e+01  3.84708e+01
       H -9.01748e+01  9.48840e+01  3.90217e+01
       H -9.04432e+01  9.33214e+01  3.67091e+01
       O -1.61637e+01 -6.26522e+01 -2.42232e+01
       H -1.67971e+01 -6.10356e+01 -2.38747e+01
       H -1.76693e+01 -6.35300e+01 -2.47233e+01
       O  9.77929e+01 -5.66313e+01  3.56442e+01
       H  9.61428e+01 -5.63873e+01  3.65239e+01
       H  9.83223e+01 -5.49186e+01  3.50124e+01
       O -1.96696e+00 -1.44068e+01  7.04056e+00
       H -2.03120e+00 -1.31257e+01  5.77169e+00
       H -2.59446e+00 -1.57811e+01  6.06461e+00
       O -3.44180e+01 -4.88501e+01 -7.72724e+01
       H -3.46698e+01 -4.93805e+01 -7.90393e+01
       H -3.42006e+01 -5.04989e+01 -7.65569e+01
       O  1.02766e+01 -1.90952e+01 -3.24694e+01
       H  8.56449e+00 -1.90657e+01 -3.21851e+01
       H  1.09156e+01 -2.01458e+01 -3.11992e+01
       O -2.68013e+01  7.45128e+01 -6.61968e+01
       H -2.66548e+01  7.47898e+01 -6.80917e+01
       H -2.83852e+01  7.38081e+01 -6.60803e+01
       O  9.54775e+01  1.33944e+01  3.85991e+00
       H  9.66539e+01  1.26968e+01  2.61322e+00
       H  9.61767e+01  1.49709e+01  4.22534e+00
       O  1.13926e+02  2.81515e+01 -2.45427e+01
       H  1.14957e+02  2.79398e+01 -2.60055e+01
       H  1.12369e+02  2.73689e+01 -2.49012e+01
       O  3.46302e+00  7.00785e+01 -1.36543e+01
       H  4.36223e+00  6.85597e+01 -1.31693e+01
       H  3.62007e+00  7.01682e+01 -1.55057e+01
       O -2.28277e+01  2.08987e+01  6.98365e+01
       H -2.35873e+01  2.18896e+01  6.83567e+01
       H -2.39615e+01  2.12887e+01  7.11812e+01
       O  1.18805e+01  6.61650e+01 -5.86827e+01
       H  1.36412e+01  6.63725e+01 -5.92552e+01
       H  1.20877e+01  6.44921e+01 -5.80516e+01
       O  1.14102e+02 -1.23812e+01  4.84879e+01
       H  1.14829e+02 -1.26270e+01  4.69796e+01
       H  1.14902e+02 -1.07950e+01  4.89203e+01
       O -6.43985e+01  1.99184e+01  4.72878e+01
       H -6.60825e+01  1.91392e+01  4.72515e+01
       H -6.35181e+01  1.89300e+01  4.84915e+01
       O  2.60331e+01  5.06326e+00 -1.29830e+01
       H  2.64898e+01  3.44139e+00 -1.36299e+01
       H  2.43105e+01  5.09410e+00 -1.24056e+01
       O -6.22525e+00 -2.00385e+01  3.53733e+01
       H -4.93133e+00 -1.88860e+01  3.49462e+01
       H -5.83876e+00 -2.07039e+01  3.70856e+01
       O  6.42195e+01 -2.70793e+01  4.45695e+01
       H  6.35590e+01 -2.55031e+01  4.49026e+01
       H  6.30166e+01 -2.78304e+01  4.35053e+01
       O  1.08630e+02 -1.42020e+00 -1.88500e+01
       H  1.09945e+02 -2.44141e+00 -1.94226e+01
       H  1.09151e+02 -8.48388e-01 -1.71247e+01
       O  2.36140e+00 -6.46023e+01  2.70015e+01
       H  3.13384e+00 -6.35806e+01  2.82878e+01
       H  6.45553e-01 -6.49290e+01  2.74214e+01
       O -8.52800e+01  3.91381e+01  4.90304e+01
       H -8.39377e+01  3.88284e+01  4.78382e+01
       H -8.45220e+01  3.97267e+01  5.06283e+01
       O  8.54667e+00 -3.98386e+01  3.19896e+01
       H  7.06451e+00 -3.89777e+01  3.15473e+01
       H  8.94525e+00 -4.10411e+01  3.07003e+01
       O -5.48138e+01  3.02345e+01  1.95935e+01
       H -5.47848e+01  3.08478e+01  2.12828e+01
       H -5.62577e+01  3.09017e+01  1.86929e+01
       O  1.34224e+01  5.38034e+01 -1.27504e+01
       H  1.18830e+01  5.28511e+01 -1.26351e+01
       H  1.47289e+01  5.26408e+01 -1.22975e+01
       O -5.98505e+01 -3.79608e+01 -2.86465e+01
       H -6.14359e+01 -3.83413e+01 -2.78058e+01
       H -5.97869e+01 -3.95695e+01 -2.95692e+01
       O  3.91425e+01 -5.87734e+01 -9.84258e+00
       H  4.00268e+01 -5.87292e+01 -1.15391e+01
       H  3.80529e+01 -6.01808e+01 -9.91820e+00
       O  5.46107e+01  1.87721e+01  6.58234e+01
       H  5.61909e+01  1.78917e+01  6.59043e+01
       H  5.37288e+01  1.88511e+01  6.73499e+01
       O -3.13644e+01  5.68594e+01  9.40791e+01
       H -3.17792e+01  5.67478e+01  9.57969e+01
       H -2.95682e+01  5.73633e+01  9.41765e+01
       O -4.17939e+01  1.29220e+02  9.37520e+01
       H -4.06011e+01  1.30335e+02  9.44703e+01
       H -4.22274e+01  1.29963e+02  9.21399e+01
       O -1.97300e+00  2.02390e+01  5.66610e+01
       H -1.54888e+00  1.84525e+01  5.66207e+01
       H -1.16056e+00  2.06532e+01  5.82586e+01
       O  5.90391e+01  3.82715e+01 -9.10907e+00
       H  5.75995e+01  3.72551e+01 -9.09014e+00
       H  6.03567e+01  3.69627e+01 -9.18980e+00
       O  1.83073e+02 -1.44689e+01 -6.77002e+00
       H  1.82150e+02 -1.35427e+01 -7.97626e+00
       H  1.81682e+02 -1.49516e+01 -5.72324e+00
       O -3.04699e+01 -1.28263e+00 -5.99850e+01
       H -2.87674e+01 -1.74756e+00 -6.03345e+01
       H -3.03539e+01  3.53560e-01 -5.91251e+01
       O  1.19959e+01 -4.17694e+01 -2.20863e+01
       H  1.06960e+01 -4.25210e+01 -2.10191e+01
       H  1.10531e+01 -4.09032e+01 -2.33879e+01
       O  2.89518e+01 -8.86251e+00  6.42016e+01
       H  2.81935e+01 -8.64878e+00  6.26613e+01
       H  2.98414e+01 -7.33088e+00  6.46562e+01
       O  5.64624e+01 -4.59462e+01  1.02585e+01
       H  5.64958e+01 -4.48299e+01  1.17946e+01
       H  5.70762e+01 -4.75946e+01  1.07303e+01
       O -5.25578e+01 -3.06942e+01 -6.26220e+01
       H -5.28575e+01 -3.25270e+01 -6.26414e+01
       H -5.41268e+01 -2.99398e+01 -6.22780e+01
       O -1.71437e+01  2.43833e+01  2.07363e+01
       H -1.75885e+01  2.32639e+01  1.92974e+01
       H -1.71016e+01  2.32421e+01  2.20894e+01
       O -6.14753e+01  5.81163e+01  3.68341e+01
       H -6.30701e+01  5.86800e+01  3.64975e+01
       H -6.15314e+01  5.73231e+01  3.84538e+01
       O -3.58849e+01  5.87979e+01  7.83100e+00
       H -3.69060e+01  5.74240e+01  8.62555e+00
       H -3.68066e+01  6.02324e+01  8.17019e+00
       O -3.09197e+01  1.46337e+00 -2.31487e+01
       H -3.13452e+01  4.68456e-01 -2.16856e+01
       H -3.20676e+01  2.82345e+00 -2.29025e+01
       O  2.31910e+01  2.84059e+01  4.09934e+01
       H  2.24653e+01  2.99774e+01  4.04992e+01
       H  2.45899e+01  2.86142e+01  4.20257e+01
       O  1.03358e+01  1.87741e+01  1.93531e+02
       H  1.04502e+01  1.86523e+01  1.95312e+02
       H  1.14557e+01  2.01569e+01  1.92906e+02
       O  9.41363e+00  2.69607e+00  2.88962e+01
       H  9.61594e+00  2.19594e+00  3.06897e+01
       H  7.75125e+00  2.16096e+00  2.84678e+01
       O -9.45694e+01  1.52471e+01 -8.45232e+01
       H -9.62739e+01  1.54286e+01 -8.51802e+01
       H -9.46334e+01  1.46153e+01 -8.27602e+01
       O -6.57916e+00  2.46009e+01  1.10372e+02
       H -7.16071e+00  2.58705e+01  1.11507e+02
       H -8.00212e+00  2.33949e+01  1.10339e+02
       O -3.23415e+01 -6.30803e+01  2.85267e+01
       H -3.34367e+01 -6.30748e+01  2.99289e+01
       H -3.31756e+01 -6.40757e+01  2.72218e+01
       O -4.12566e+01  1.82829e+01  8.08794e+01
       H -3.95383e+01  1.82996e+01  8.07657e+01
       H -4.18951e+01  1.78344e+01  7.92377e+01
       O  9.33525e+01  8.91591e+01 -3.10533e+01
       H  9.30706e+01  8.95720e+01 -2.92740e+01
       H  9.44941e+01  9.05445e+01 -3.12793e+01
       O  6.97438e+01 -3.26398e+01  8.45244e+01
       H  6.99759e+01 -3.11346e+01  8.54926e+01
       H  6.97501e+01 -3.41249e+01  8.56681e+01
       O -2.06368e+01  4.97480e+00  4.50792e+01
       H -1.95122e+01  3.59009e+00  4.53737e+01
       H -2.12996e+01  5.27714e+00  4.67410e+01
       O  1.61735e+02 -1.15691e+00  4.81907e+00
       H  1.62107e+02 -1.40809e+00  6.60265e+00
       H  1.61529e+02  6.51547e-01  4.47580e+00
       O -5.92507e+01  7.22143e+01 -7.50357e+01
       H -5.89601e+01  7.05095e+01 -7.56348e+01
       H -6.07916e+01  7.17876e+01 -7.43116e+01
       O -4.65785e+01 -3.61088e+01  1.96909e+01
       H -4.80355e+01 -3.63962e+01  1.86377e+01
       H -4.67475e+01 -3.43897e+01  2.01929e+01
