192
# CELL(abcABC):   23.77957    23.77957    23.77957    90.00000    90.00000    90.00000  Step:       60000  Bead:       0 x_centroid{atomic_unit}  cell{atomic_unit}
       O -3.38143e+01  5.06750e+01  1.30931e+01
       H -3.47873e+01  5.17079e+01  1.20665e+01
       H -3.39389e+01  4.90435e+01  1.23228e+01
       O  4.38068e+01  7.43082e+01 -7.82185e+01
       H  4.28403e+01  7.47663e+01 -7.97261e+01
       H  4.45324e+01  7.58609e+01 -7.76269e+01
       O  1.26024e+01  4.07197e+01 -7.91334e+01
       H  1.43112e+01  4.10341e+01 -7.86987e+01
       H  1.25964e+01  3.90501e+01 -7.98366e+01
       O  6.70765e+01 -4.64723e+01 -9.73479e+01
       H  6.79303e+01 -4.61132e+01 -9.89816e+01
       H  6.57462e+01 -4.74983e+01 -9.77080e+01
       O  1.78486e+01  1.13580e+02  8.72528e+01
       H  1.90446e+01  1.12170e+02  8.76501e+01
       H  1.78490e+01  1.13366e+02  8.54512e+01
       O -2.09635e+01  4.88317e+01  1.23471e+01
       H -2.19426e+01  4.89136e+01  1.09503e+01
       H -2.19684e+01  4.78752e+01  1.34058e+01
       O  3.61410e+01  9.84651e-01 -1.83320e+01
       H  3.46198e+01  1.04249e+00 -1.92934e+01
       H  3.72456e+01 -9.82306e-02 -1.92636e+01
       O -5.32771e+00  2.44003e+01  7.83652e+01
       H -5.72051e+00  2.33756e+01  7.69658e+01
       H -5.50490e+00  2.61134e+01  7.80518e+01
       O  8.13174e+01 -4.19508e+01  6.92919e+01
       H  8.03575e+01 -4.31121e+01  6.81942e+01
       H  8.03809e+01 -4.23146e+01  7.07962e+01
       O -1.83275e+01 -8.25320e+01 -5.27726e+01
       H -1.79365e+01 -8.08525e+01 -5.32677e+01
       H -1.68505e+01 -8.31018e+01 -5.17148e+01
       O -9.29303e+01  2.82524e+01  5.61158e+00
       H -9.45043e+01  2.76529e+01  4.93999e+00
       H -9.35097e+01  2.83307e+01  7.29072e+00
       O -8.73438e+01  6.49146e+01  6.57580e+01
       H -8.56936e+01  6.41339e+01  6.61100e+01
       H -8.66468e+01  6.65902e+01  6.55059e+01
       O  1.69601e+01 -7.73157e+01 -1.29168e+01
       H  1.56967e+01 -7.60254e+01 -1.26610e+01
       H  1.58172e+01 -7.87821e+01 -1.31713e+01
       O  8.90079e+01 -6.51431e+01  2.29667e+01
       H  8.83498e+01 -6.66389e+01  2.22718e+01
       H  8.84986e+01 -6.36857e+01  2.18349e+01
       O  2.90059e+01  7.25218e-01 -1.75932e+01
       H  2.77558e+01  2.10319e+00 -1.75981e+01
       H  2.96002e+01  5.62771e-01 -1.58390e+01
       O -6.40100e+01 -2.38311e+01 -3.70048e+01
       H -6.56633e+01 -2.34336e+01 -3.62634e+01
       H -6.38596e+01 -2.56315e+01 -3.67042e+01
       O  1.37122e+01 -4.91695e+01 -3.67924e+01
       H  1.20397e+01 -4.99291e+01 -3.66301e+01
       H  1.39172e+01 -4.85557e+01 -3.85007e+01
       O -2.50197e+01  9.69939e+01 -8.55601e+01
       H -2.63762e+01  9.64243e+01 -8.67186e+01
       H -2.57087e+01  9.77654e+01 -8.40697e+01
       O  8.78572e+01  1.31907e+01  2.11413e+01
       H  8.72439e+01  1.19110e+01  1.99924e+01
       H  8.63696e+01  1.34311e+01  2.22353e+01
       O  9.54022e+01  6.86564e+01 -2.11842e+01
       H  9.46108e+01  7.01747e+01 -2.07092e+01
       H  9.52757e+01  6.85596e+01 -2.29928e+01
       O -1.64069e+01  5.76335e+01 -9.39109e+00
       H -1.68676e+01  5.81574e+01 -7.69061e+00
       H -1.69159e+01  5.88048e+01 -1.07627e+01
       O  9.91780e+00 -1.55722e+00  8.87365e+01
       H  1.16175e+01 -1.86557e+00  8.90432e+01
       H  9.87312e+00 -9.25557e-01  8.71019e+01
       O -5.46788e+00  7.66654e+01 -4.34124e+01
       H -6.17623e+00  7.70293e+01 -4.50146e+01
       H -3.83971e+00  7.59892e+01 -4.38010e+01
       O  1.18281e+02 -2.70107e+01  4.49107e+01
       H  1.18182e+02 -2.68351e+01  4.31178e+01
       H  1.16485e+02 -2.71760e+01  4.53991e+01
       O -8.23241e+01  3.82691e+01  2.95532e+01
       H -8.21706e+01  3.74455e+01  2.78772e+01
       H -8.13938e+01  3.71552e+01  3.07358e+01
       O  3.32608e+01 -2.89595e+01  3.53646e+01
       H  3.20170e+01 -3.03704e+01  3.50385e+01
       H  3.40675e+01 -2.93232e+01  3.69675e+01
       O -5.04117e+01  1.42620e+01  2.80077e+01
       H -5.13805e+01  1.56795e+01  2.83414e+01
       H -5.04074e+01  1.41344e+01  2.62196e+01
       O  6.37919e+01 -1.43272e+00  2.65350e+01
       H  6.47241e+01 -1.88072e+00  2.50526e+01
       H  6.37166e+01 -3.00416e+00  2.74483e+01
       O  1.19034e+02 -1.32705e+01 -3.32019e+01
       H  1.19170e+02 -1.42668e+01 -3.47809e+01
       H  1.20094e+02 -1.18304e+01 -3.33216e+01
       O  2.98537e+01 -5.68661e+01  1.14731e+01
       H  2.93973e+01 -5.67088e+01  9.77336e+00
       H  2.86723e+01 -5.59240e+01  1.24220e+01
       O -9.70005e+01  5.69669e+01  5.36711e+01
       H -9.79682e+01  5.57722e+01  5.27957e+01
       H -9.74270e+01  5.85047e+01  5.29342e+01
       O -2.65839e+01 -5.63093e+01  4.14779e+01
       H -2.64343e+01 -5.76620e+01  4.04289e+01
       H -2.58696e+01 -5.69120e+01  4.30747e+01
       O -7.40407e+01  6.10528e+01  2.28964e+01
       H -7.56619e+01  6.06879e+01  2.20696e+01
       H -7.29552e+01  5.96756e+01  2.27134e+01
       O -1.54269e+01  2.64924e+01  2.62759e+00
       H -1.51946e+01  2.51812e+01  1.37738e+00
       H -1.68661e+01  2.60603e+01  3.77368e+00
       O -8.64941e+01 -6.08444e+01 -4.93647e+01
       H -8.58011e+01 -6.24006e+01 -5.01642e+01
       H -8.78614e+01 -6.13738e+01 -4.83400e+01
       O  3.27376e+01 -4.91500e+01 -3.41562e-01
       H  3.17733e+01 -4.97734e+01  1.00936e+00
       H  3.15345e+01 -4.87868e+01 -1.60481e+00
       O  4.03997e+01  3.23696e+01  6.63700e+01
       H  3.93249e+01  3.10147e+01  6.66975e+01
       H  4.19767e+01  3.16541e+01  6.58572e+01
       O -3.73101e+01  7.82916e+01  1.01610e+02
       H -3.72600e+01  7.70686e+01  1.02913e+02
       H -3.71660e+01  7.72733e+01  1.00042e+02
       O -5.24986e+01  1.24244e+02  1.06988e+02
       H -5.41956e+01  1.23818e+02  1.07096e+02
       H -5.25375e+01  1.25712e+02  1.05952e+02
       O  1.47780e+01  1.27033e+01  3.41352e+01
       H  1.41168e+01  1.20610e+01  3.56710e+01
       H  1.54815e+01  1.11718e+01  3.33696e+01
       O  6.95338e+01 -4.56077e+00 -1.22427e+01
       H  7.03820e+01 -4.35510e+00 -1.38989e+01
       H  6.77570e+01 -4.75405e+00 -1.25801e+01
       O  1.92027e+02 -3.10353e+01  1.41455e+01
       H  1.91578e+02 -3.04147e+01  1.57251e+01
       H  1.90681e+02 -3.03519e+01  1.29425e+01
       O -2.90017e+01 -2.89901e+01 -2.42801e+01
       H -3.05656e+01 -2.96179e+01 -2.37530e+01
       H -2.78332e+01 -3.03676e+01 -2.43846e+01
       O  2.86523e+01 -4.24209e+01 -5.58463e+01
       H  2.77134e+01 -4.35071e+01 -5.69740e+01
       H  2.81332e+01 -4.06684e+01 -5.61958e+01
       O  3.93750e+01 -1.34975e+00  1.90989e+01
       H  4.04476e+01 -1.86177e+00  1.77998e+01
       H  3.91739e+01  4.60808e-01  1.88391e+01
       O  2.24610e+01 -4.52532e+01  1.73220e+00
       H  2.15628e+01 -4.58853e+01  1.34350e-01
       H  2.40852e+01 -4.55436e+01  1.08612e+00
       O -1.11961e+01 -5.80331e+01 -7.05959e+01
       H -1.25274e+01 -5.86258e+01 -7.15251e+01
       H -1.14661e+01 -5.62878e+01 -7.05345e+01
       O -2.57138e+01  3.12683e+01  4.18562e+01
       H -2.44997e+01  3.16687e+01  4.30918e+01
       H -2.52009e+01  3.20766e+01  4.02606e+01
       O -6.20909e+01  2.87746e+01  3.49188e+01
       H -6.26923e+01  2.70291e+01  3.48545e+01
       H -6.27366e+01  2.94080e+01  3.65320e+01
       O -9.30188e+01  7.95739e+01 -1.40227e+01
       H -9.15159e+01  8.01956e+01 -1.47402e+01
       H -9.39480e+01  8.01330e+01 -1.54063e+01
       O -3.18192e+01  1.86303e+01  6.13588e+00
       H -3.09630e+01  1.85969e+01  7.65634e+00
       H -3.28775e+01  1.72583e+01  6.16146e+00
       O  2.63133e+01  2.44072e+01  2.23981e+01
       H  2.53340e+01  2.31947e+01  2.14282e+01
       H  2.75928e+01  2.49128e+01  2.12397e+01
       O  2.53140e+01 -1.36840e+01  1.87670e+02
       H  2.58441e+01 -1.39834e+01  1.89367e+02
       H  2.64997e+01 -1.25478e+01  1.86829e+02
       O -1.76245e+01 -3.39805e+00  5.11331e+01
       H -1.92879e+01 -3.49059e+00  5.04241e+01
       H -1.78533e+01 -1.89267e+00  5.20974e+01
       O -5.58580e+01  3.16409e+01 -8.74191e+01
       H -5.74860e+01  3.11288e+01 -8.79611e+01
       H -5.47571e+01  3.08815e+01 -8.86636e+01
       O  5.88631e+00  5.79647e+01  1.25430e+02
       H  6.86791e+00  5.95417e+01  1.25380e+02
       H  7.10719e+00  5.66741e+01  1.25741e+02
       O -1.10595e+01 -5.99142e+01  1.45912e+01
       H -1.05105e+01 -6.09537e+01  1.59628e+01
       H -1.28453e+01 -6.02817e+01  1.41317e+01
       O -2.46714e+01  2.24706e+01  1.10778e+02
       H -2.58340e+01  2.38104e+01  1.11196e+02
       H -2.52399e+01  2.13217e+01  1.09507e+02
       O  8.36144e+01  6.58114e+01 -1.11821e+00
       H  8.21343e+01  6.67999e+01 -8.58667e-01
       H  8.45296e+01  6.66931e+01 -2.33954e+00
       O  8.48798e+01 -1.98906e+01  8.97468e+01
       H  8.36239e+01 -1.91933e+01  9.08464e+01
       H  8.44412e+01 -1.99223e+01  8.79806e+01
       O -2.35570e+01  1.81472e+01  5.43182e+01
       H -2.37717e+01  1.92146e+01  5.28534e+01
       H -2.50517e+01  1.72526e+01  5.43225e+01
       O  1.73453e+02  2.44089e+00 -2.83580e+01
       H  1.74430e+02  1.23706e+00 -2.92124e+01
       H  1.72600e+02  3.31891e+00 -2.97255e+01
       O -6.38917e+01  8.70304e+01 -6.49060e+01
       H -6.20647e+01  8.70247e+01 -6.53624e+01
       H -6.46290e+01  8.84418e+01 -6.58339e+01
       O -4.20846e+01 -3.96204e+01  1.40707e+00
       H -4.21033e+01 -4.14186e+01  1.50744e+00
       H -4.24384e+01 -3.91427e+01  3.18175e+00
