#Bead    Energy (eV)
0     0.08401548407667692
1     0.08754521678856948
2     0.09470243661361648
3     0.10537225682720777
4     0.1185798979659253
5     0.1317789623338205
6     0.1417109668300342
7     0.1461109436421305
8     0.1438103938424093
9     0.13656002811924284
10     0.1265854826602397
11     0.11509595940389292
12     0.1040808765227056
13     0.09516630384107448
14     0.08907266597203442
15     0.0860117519104789
