#Bead    Energy (eV)
0     0.0843255133367963
1     0.08784695646818827
2     0.09498561716298513
3     0.10561815627972837
4     0.11876220966359217
5     0.13187767823589117
6     0.14174105051536662
7     0.14611096877995308
8     0.14383135833979266
9     0.1366328848797003
10     0.12672863574611695
11     0.11530963583959201
12     0.10433880599460289
13     0.09544487775657724
14     0.08935791114416519
15     0.08629819900209464
