#Bead    Energy (eV)
0     0.08432987489204383
1     0.0878524706854077
2     0.09499319420842016
3     0.10562813455736628
4     0.11877371459529028
5     0.13188807751455592
6     0.14174778956629122
7     0.1461119622637928
8     0.14382628338760886
9     0.13662413424783038
10     0.12671720061007438
11     0.1152963578742579
12     0.10432512307868111
13     0.09543144662083826
14     0.08934484742343426
15     0.0862853441449061
