1
# CELL(abcABC):   10.00000    10.00000    10.00000    90.00000    90.00000    90.00000  Step:           0  Bead:       0 positions{atomic_unit}  cell{atomic_unit}
       H  0.00000e+00  0.00000e+00  0.00000e+00
1
# CELL(abcABC):   10.00000    10.00000     8.81574    90.00000    90.00000    90.00000  Step:           1  Bead:       0 positions{atomic_unit}  cell{atomic_unit}
       H  1.76106e-03 -1.31996e-02  1.79324e-03
1
# CELL(abcABC):   10.00000    10.00000     6.23807    90.00000    90.00000    90.00000  Step:           2  Bead:       0 positions{atomic_unit}  cell{atomic_unit}
       H  2.47293e-03 -2.50660e-02  2.84663e-03
1
# CELL(abcABC):   10.00000    10.00000     3.78962    90.00000    90.00000    90.00000  Step:           3  Bead:       0 positions{atomic_unit}  cell{atomic_unit}
       H  3.73270e-03 -3.86003e-02  3.44421e-03
1
# CELL(abcABC):   10.00000    10.00000     2.10155    90.00000    90.00000    90.00000  Step:           4  Bead:       0 positions{atomic_unit}  cell{atomic_unit}
       H  4.75123e-03 -5.10455e-02  5.12208e-03
1
# CELL(abcABC):   10.00000    10.00000     1.11423    90.00000    90.00000    90.00000  Step:           5  Bead:       0 positions{atomic_unit}  cell{atomic_unit}
       H  4.77517e-03 -6.40185e-02  1.06535e-02
1
# CELL(abcABC):   10.00000    10.00000     0.57874    90.00000    90.00000    90.00000  Step:           6  Bead:       0 positions{atomic_unit}  cell{atomic_unit}
       H  6.24198e-03 -7.81852e-02  2.10695e-02
1
# CELL(abcABC):   10.00000    10.00000     0.29851    90.00000    90.00000    90.00000  Step:           7  Bead:       0 positions{atomic_unit}  cell{atomic_unit}
       H  7.67861e-03 -9.17741e-02  4.03223e-02
1
# CELL(abcABC):   10.00000    10.00000     0.15498    90.00000    90.00000    90.00000  Step:           8  Bead:       0 positions{atomic_unit}  cell{atomic_unit}
       H  1.03218e-02 -1.05113e-01  7.80540e-02
1
# CELL(abcABC):   10.00000    10.00000     0.08285    90.00000    90.00000    90.00000  Step:           9  Bead:       0 positions{atomic_unit}  cell{atomic_unit}
       H  1.31672e-02 -1.19024e-01  1.50253e-01
1
# CELL(abcABC):   10.00000    10.00000     0.04872    90.00000    90.00000    90.00000  Step:          10  Bead:       0 positions{atomic_unit}  cell{atomic_unit}
       H  1.59277e-02 -1.32872e-01  2.86866e-01
1
# CELL(abcABC):   10.00000    10.00000     0.03713    90.00000    90.00000    90.00000  Step:          11  Bead:       0 positions{atomic_unit}  cell{atomic_unit}
       H  1.72750e-02 -1.46527e-01  5.40181e-01
1
# CELL(abcABC):   10.00000    10.00000     0.04353    90.00000    90.00000    90.00000  Step:          12  Bead:       0 positions{atomic_unit}  cell{atomic_unit}
       H  1.79141e-02 -1.61454e-01  1.04714e+00
1
# CELL(abcABC):   10.00000    10.00000     0.06910    90.00000    90.00000    90.00000  Step:          13  Bead:       0 positions{atomic_unit}  cell{atomic_unit}
       H  1.95243e-02 -1.76277e-01  2.02239e+00
1
# CELL(abcABC):   10.00000    10.00000     0.12257    90.00000    90.00000    90.00000  Step:          14  Bead:       0 positions{atomic_unit}  cell{atomic_unit}
       H  2.16699e-02 -1.91018e-01  3.81663e+00
1
# CELL(abcABC):   10.00000    10.00000     0.22367    90.00000    90.00000    90.00000  Step:          15  Bead:       0 positions{atomic_unit}  cell{atomic_unit}
       H  2.29134e-02 -2.06131e-01  7.09374e+00
1
# CELL(abcABC):   10.00000    10.00000     0.40772    90.00000    90.00000    90.00000  Step:          16  Bead:       0 positions{atomic_unit}  cell{atomic_unit}
       H  2.28194e-02 -2.19531e-01  1.29999e+01
1
# CELL(abcABC):   10.00000    10.00000     0.73435    90.00000    90.00000    90.00000  Step:          17  Bead:       0 positions{atomic_unit}  cell{atomic_unit}
       H  2.16584e-02 -2.33774e-01  2.34517e+01
1
# CELL(abcABC):   10.00000    10.00000     1.29127    90.00000    90.00000    90.00000  Step:          18  Bead:       0 positions{atomic_unit}  cell{atomic_unit}
       H  2.11229e-02 -2.47759e-01  4.12585e+01
1
# CELL(abcABC):   10.00000    10.00000     2.18816    90.00000    90.00000    90.00000  Step:          19  Bead:       0 positions{atomic_unit}  cell{atomic_unit}
       H  1.91063e-02 -2.60504e-01  6.99261e+01
1
# CELL(abcABC):   10.00000    10.00000     3.49107    90.00000    90.00000    90.00000  Step:          20  Bead:       0 positions{atomic_unit}  cell{atomic_unit}
       H  1.64065e-02 -2.73624e-01  1.11570e+02
1
# CELL(abcABC):   10.00000    10.00000     5.07281    90.00000    90.00000    90.00000  Step:          21  Bead:       0 positions{atomic_unit}  cell{atomic_unit}
       H  1.42476e-02 -2.86039e-01  1.62124e+02
1
# CELL(abcABC):   10.00000    10.00000     6.47980    90.00000    90.00000    90.00000  Step:          22  Bead:       0 positions{atomic_unit}  cell{atomic_unit}
       H  1.23673e-02 -2.98624e-01  2.07092e+02
1
# CELL(abcABC):   10.00000    10.00000     7.03130    90.00000    90.00000    90.00000  Step:          23  Bead:       0 positions{atomic_unit}  cell{atomic_unit}
       H  9.99883e-03 -3.12407e-01  2.24716e+02
1
# CELL(abcABC):   10.00000    10.00000     6.39231    90.00000    90.00000    90.00000  Step:          24  Bead:       0 positions{atomic_unit}  cell{atomic_unit}
       H  9.41624e-03 -3.25546e-01  2.04294e+02
1
# CELL(abcABC):   10.00000    10.00000     4.96216    90.00000    90.00000    90.00000  Step:          25  Bead:       0 positions{atomic_unit}  cell{atomic_unit}
       H  7.80858e-03 -3.39011e-01  1.58587e+02
1
# CELL(abcABC):   10.00000    10.00000     3.41079    90.00000    90.00000    90.00000  Step:          26  Bead:       0 positions{atomic_unit}  cell{atomic_unit}
       H  6.69275e-03 -3.54339e-01  1.09006e+02
1
# CELL(abcABC):   10.00000    10.00000     2.16274    90.00000    90.00000    90.00000  Step:          27  Bead:       0 positions{atomic_unit}  cell{atomic_unit}
       H  6.61760e-03 -3.69311e-01  6.91185e+01
1
# CELL(abcABC):   10.00000    10.00000     1.30340    90.00000    90.00000    90.00000  Step:          28  Bead:       0 positions{atomic_unit}  cell{atomic_unit}
       H  7.31131e-03 -3.84197e-01  4.16540e+01
1
# CELL(abcABC):   10.00000    10.00000     0.76357    90.00000    90.00000    90.00000  Step:          29  Bead:       0 positions{atomic_unit}  cell{atomic_unit}
       H  8.13129e-03 -3.99457e-01  2.43986e+01
1
# CELL(abcABC):   10.00000    10.00000     0.44162    90.00000    90.00000    90.00000  Step:          30  Bead:       0 positions{atomic_unit}  cell{atomic_unit}
       H  8.24576e-03 -4.14977e-01  1.41078e+01
1
# CELL(abcABC):   10.00000    10.00000     0.25455    90.00000    90.00000    90.00000  Step:          31  Bead:       0 positions{atomic_unit}  cell{atomic_unit}
       H  7.20107e-03 -4.30653e-01  8.12788e+00
1
# CELL(abcABC):   10.00000    10.00000     0.14695    90.00000    90.00000    90.00000  Step:          32  Bead:       0 positions{atomic_unit}  cell{atomic_unit}
       H  8.82753e-03 -4.45625e-01  4.68646e+00
1
# CELL(abcABC):   10.00000    10.00000     0.08502    90.00000    90.00000    90.00000  Step:          33  Bead:       0 positions{atomic_unit}  cell{atomic_unit}
       H  1.17963e-02 -4.58697e-01  2.69979e+00
1
# CELL(abcABC):   10.00000    10.00000     0.04932    90.00000    90.00000    90.00000  Step:          34  Bead:       0 positions{atomic_unit}  cell{atomic_unit}
       H  1.38566e-02 -4.72518e-01  1.54566e+00
1
# CELL(abcABC):   10.00000    10.00000     0.02883    90.00000    90.00000    90.00000  Step:          35  Bead:       0 positions{atomic_unit}  cell{atomic_unit}
       H  1.64967e-02 -4.85967e-01  8.69658e-01
1
# CELL(abcABC):   10.00000    10.00000     0.01707    90.00000    90.00000    90.00000  Step:          36  Bead:       0 positions{atomic_unit}  cell{atomic_unit}
       H  1.89959e-02 -4.97079e-01  4.58824e-01
1
# CELL(abcABC):   10.00000    10.00000     0.01033    90.00000    90.00000    90.00000  Step:          37  Bead:       0 positions{atomic_unit}  cell{atomic_unit}
       H  2.36100e-02 -5.07563e-01  1.84787e-01
1
# CELL(abcABC):   10.00000    10.00000     0.00662    90.00000    90.00000    90.00000  Step:          38  Bead:       0 positions{atomic_unit}  cell{atomic_unit}
       H  2.75010e-02 -5.18543e-01 -3.26184e-02
1
# CELL(abcABC):   10.00000    10.00000     0.00483    90.00000    90.00000    90.00000  Step:          39  Bead:       0 positions{atomic_unit}  cell{atomic_unit}
       H  3.18634e-02 -5.29994e-01 -2.53492e-01
1
# CELL(abcABC):   10.00000    10.00000     0.00447    90.00000    90.00000    90.00000  Step:          40  Bead:       0 positions{atomic_unit}  cell{atomic_unit}
       H  3.61070e-02 -5.41094e-01 -5.41924e-01
1
# CELL(abcABC):   10.00000    10.00000     0.00543    90.00000    90.00000    90.00000  Step:          41  Bead:       0 positions{atomic_unit}  cell{atomic_unit}
       H  4.04770e-02 -5.53346e-01 -9.88062e-01
1
# CELL(abcABC):   10.00000    10.00000     0.00786    90.00000    90.00000    90.00000  Step:          42  Bead:       0 positions{atomic_unit}  cell{atomic_unit}
       H  4.36463e-02 -5.66065e-01 -1.70311e+00
1
# CELL(abcABC):   10.00000    10.00000     0.01232    90.00000    90.00000    90.00000  Step:          43  Bead:       0 positions{atomic_unit}  cell{atomic_unit}
       H  4.66989e-02 -5.78911e-01 -2.85888e+00
1
# CELL(abcABC):   10.00000    10.00000     0.01989    90.00000    90.00000    90.00000  Step:          44  Bead:       0 positions{atomic_unit}  cell{atomic_unit}
       H  5.11642e-02 -5.91922e-01 -4.73624e+00
1
# CELL(abcABC):   10.00000    10.00000     0.03229    90.00000    90.00000    90.00000  Step:          45  Bead:       0 positions{atomic_unit}  cell{atomic_unit}
       H  5.48083e-02 -6.04470e-01 -7.76168e+00
1
# CELL(abcABC):   10.00000    10.00000     0.05235    90.00000    90.00000    90.00000  Step:          46  Bead:       0 positions{atomic_unit}  cell{atomic_unit}
       H  5.70350e-02 -6.17181e-01 -1.26252e+01
1
# CELL(abcABC):   10.00000    10.00000     0.08452    90.00000    90.00000    90.00000  Step:          47  Bead:       0 positions{atomic_unit}  cell{atomic_unit}
       H  5.92877e-02 -6.29957e-01 -2.04067e+01
1
# CELL(abcABC):   10.00000    10.00000     0.13534    90.00000    90.00000    90.00000  Step:          48  Bead:       0 positions{atomic_unit}  cell{atomic_unit}
       H  6.07452e-02 -6.42370e-01 -3.26902e+01
1
# CELL(abcABC):   10.00000    10.00000     0.21564    90.00000    90.00000    90.00000  Step:          49  Bead:       0 positions{atomic_unit}  cell{atomic_unit}
       H  6.24972e-02 -6.54738e-01 -5.20962e+01
1
# CELL(abcABC):   10.00000    10.00000     0.34065    90.00000    90.00000    90.00000  Step:          50  Bead:       0 positions{atomic_unit}  cell{atomic_unit}
       H  6.43706e-02 -6.66146e-01 -8.23018e+01
1
# CELL(abcABC):   10.00000    10.00000     0.53119    90.00000    90.00000    90.00000  Step:          51  Bead:       0 positions{atomic_unit}  cell{atomic_unit}
       H  6.68094e-02 -6.77140e-01 -1.28341e+02
1
# CELL(abcABC):   10.00000    10.00000     0.81402    90.00000    90.00000    90.00000  Step:          52  Bead:       0 positions{atomic_unit}  cell{atomic_unit}
       H  7.00573e-02 -6.88327e-01 -1.96678e+02
1
# CELL(abcABC):   10.00000    10.00000     1.21503    90.00000    90.00000    90.00000  Step:          53  Bead:       0 positions{atomic_unit}  cell{atomic_unit}
       H  7.28306e-02 -7.00471e-01 -2.93568e+02
1
# CELL(abcABC):   10.00000    10.00000     1.75441    90.00000    90.00000    90.00000  Step:          54  Bead:       0 positions{atomic_unit}  cell{atomic_unit}
       H  7.58027e-02 -7.12065e-01 -4.23891e+02
1
# CELL(abcABC):   10.00000    10.00000     2.42171    90.00000    90.00000    90.00000  Step:          55  Bead:       0 positions{atomic_unit}  cell{atomic_unit}
       H  7.85052e-02 -7.22775e-01 -5.85122e+02
1
# CELL(abcABC):   10.00000    10.00000     3.12991    90.00000    90.00000    90.00000  Step:          56  Bead:       0 positions{atomic_unit}  cell{atomic_unit}
       H  8.12734e-02 -7.33274e-01 -7.56233e+02
1
# CELL(abcABC):   10.00000    10.00000     3.73191    90.00000    90.00000    90.00000  Step:          57  Bead:       0 positions{atomic_unit}  cell{atomic_unit}
       H  8.46879e-02 -7.45125e-01 -9.01685e+02
1
# CELL(abcABC):   10.00000    10.00000     4.05227    90.00000    90.00000    90.00000  Step:          58  Bead:       0 positions{atomic_unit}  cell{atomic_unit}
       H  8.81342e-02 -7.56537e-01 -9.79090e+02
1
# CELL(abcABC):   10.00000    10.00000     3.97354    90.00000    90.00000    90.00000  Step:          59  Bead:       0 positions{atomic_unit}  cell{atomic_unit}
       H  9.02715e-02 -7.68806e-01 -9.60066e+02
1
# CELL(abcABC):   10.00000    10.00000     3.53001    90.00000    90.00000    90.00000  Step:          60  Bead:       0 positions{atomic_unit}  cell{atomic_unit}
       H  9.20504e-02 -7.81246e-01 -8.52903e+02
1
# CELL(abcABC):   10.00000    10.00000     2.87859    90.00000    90.00000    90.00000  Step:          61  Bead:       0 positions{atomic_unit}  cell{atomic_unit}
       H  9.53574e-02 -7.93328e-01 -6.95511e+02
1
# CELL(abcABC):   10.00000    10.00000     2.18849    90.00000    90.00000    90.00000  Step:          62  Bead:       0 positions{atomic_unit}  cell{atomic_unit}
       H  9.84491e-02 -8.05466e-01 -5.28772e+02
1
# CELL(abcABC):   10.00000    10.00000     1.58266    90.00000    90.00000    90.00000  Step:          63  Bead:       0 positions{atomic_unit}  cell{atomic_unit}
       H  1.02422e-01 -8.18606e-01 -3.82395e+02
1
# CELL(abcABC):   10.00000    10.00000     1.10372    90.00000    90.00000    90.00000  Step:          64  Bead:       0 positions{atomic_unit}  cell{atomic_unit}
       H  1.06788e-01 -8.31889e-01 -2.66676e+02
1
# CELL(abcABC):   10.00000    10.00000     0.75323    90.00000    90.00000    90.00000  Step:          65  Bead:       0 positions{atomic_unit}  cell{atomic_unit}
       H  1.13355e-01 -8.45631e-01 -1.81991e+02
1
# CELL(abcABC):   10.00000    10.00000     0.50507    90.00000    90.00000    90.00000  Step:          66  Bead:       0 positions{atomic_unit}  cell{atomic_unit}
       H  1.18899e-01 -8.59421e-01 -1.22031e+02
1
# CELL(abcABC):   10.00000    10.00000     0.33655    90.00000    90.00000    90.00000  Step:          67  Bead:       0 positions{atomic_unit}  cell{atomic_unit}
       H  1.25409e-01 -8.73442e-01 -8.13139e+01
1
# CELL(abcABC):   10.00000    10.00000     0.22336    90.00000    90.00000    90.00000  Step:          68  Bead:       0 positions{atomic_unit}  cell{atomic_unit}
       H  1.32222e-01 -8.90055e-01 -5.39651e+01
1
# CELL(abcABC):   10.00000    10.00000     0.14773    90.00000    90.00000    90.00000  Step:          69  Bead:       0 positions{atomic_unit}  cell{atomic_unit}
       H  1.40212e-01 -9.05328e-01 -3.56905e+01
1
# CELL(abcABC):   10.00000    10.00000     0.09758    90.00000    90.00000    90.00000  Step:          70  Bead:       0 positions{atomic_unit}  cell{atomic_unit}
       H  1.49544e-01 -9.21382e-01 -2.35731e+01
1
# CELL(abcABC):   10.00000    10.00000     0.06456    90.00000    90.00000    90.00000  Step:          71  Bead:       0 positions{atomic_unit}  cell{atomic_unit}
       H  1.57470e-01 -9.38241e-01 -1.55926e+01
1
# CELL(abcABC):   10.00000    10.00000     0.04277    90.00000    90.00000    90.00000  Step:          72  Bead:       0 positions{atomic_unit}  cell{atomic_unit}
       H  1.64435e-01 -9.55758e-01 -1.03272e+01
1
# CELL(abcABC):   10.00000    10.00000     0.02846    90.00000    90.00000    90.00000  Step:          73  Bead:       0 positions{atomic_unit}  cell{atomic_unit}
       H  1.70333e-01 -9.74421e-01 -6.86773e+00
1
# CELL(abcABC):   10.00000    10.00000     0.01899    90.00000    90.00000    90.00000  Step:          74  Bead:       0 positions{atomic_unit}  cell{atomic_unit}
       H  1.75668e-01 -9.92671e-01 -4.57568e+00
1
# CELL(abcABC):   10.00000    10.00000     0.01271    90.00000    90.00000    90.00000  Step:          75  Bead:       0 positions{atomic_unit}  cell{atomic_unit}
       H  1.80246e-01 -1.01020e+00 -3.04892e+00
1
# CELL(abcABC):   10.00000    10.00000     0.00853    90.00000    90.00000    90.00000  Step:          76  Bead:       0 positions{atomic_unit}  cell{atomic_unit}
       H  1.86076e-01 -1.02631e+00 -2.02887e+00
1
# CELL(abcABC):   10.00000    10.00000     0.00576    90.00000    90.00000    90.00000  Step:          77  Bead:       0 positions{atomic_unit}  cell{atomic_unit}
       H  1.90022e-01 -1.04260e+00 -1.34245e+00
1
# CELL(abcABC):   10.00000    10.00000     0.00391    90.00000    90.00000    90.00000  Step:          78  Bead:       0 positions{atomic_unit}  cell{atomic_unit}
       H  1.95630e-01 -1.05817e+00 -8.73923e-01
1
# CELL(abcABC):   10.00000    10.00000     0.00269    90.00000    90.00000    90.00000  Step:          79  Bead:       0 positions{atomic_unit}  cell{atomic_unit}
       H  2.02023e-01 -1.07453e+00 -5.43424e-01
1
# CELL(abcABC):   10.00000    10.00000     0.00189    90.00000    90.00000    90.00000  Step:          80  Bead:       0 positions{atomic_unit}  cell{atomic_unit}
       H  2.07437e-01 -1.09152e+00 -3.00325e-01
1
# CELL(abcABC):   10.00000    10.00000     0.00138    90.00000    90.00000    90.00000  Step:          81  Bead:       0 positions{atomic_unit}  cell{atomic_unit}
       H  2.12849e-01 -1.10903e+00 -1.03707e-01
1
# CELL(abcABC):   10.00000    10.00000     0.00107    90.00000    90.00000    90.00000  Step:          82  Bead:       0 positions{atomic_unit}  cell{atomic_unit}
       H  2.16459e-01 -1.12667e+00  7.37399e-02
1
# CELL(abcABC):   10.00000    10.00000     0.00091    90.00000    90.00000    90.00000  Step:          83  Bead:       0 positions{atomic_unit}  cell{atomic_unit}
       H  2.19501e-01 -1.14240e+00  2.59753e-01
1
# CELL(abcABC):   10.00000    10.00000     0.00089    90.00000    90.00000    90.00000  Step:          84  Bead:       0 positions{atomic_unit}  cell{atomic_unit}
       H  2.22641e-01 -1.15947e+00  4.80144e-01
1
# CELL(abcABC):   10.00000    10.00000     0.00099    90.00000    90.00000    90.00000  Step:          85  Bead:       0 positions{atomic_unit}  cell{atomic_unit}
       H  2.25838e-01 -1.17670e+00  7.66051e-01
1
# CELL(abcABC):   10.00000    10.00000     0.00123    90.00000    90.00000    90.00000  Step:          86  Bead:       0 positions{atomic_unit}  cell{atomic_unit}
       H  2.28739e-01 -1.19507e+00  1.15598e+00
1
# CELL(abcABC):   10.00000    10.00000     0.00163    90.00000    90.00000    90.00000  Step:          87  Bead:       0 positions{atomic_unit}  cell{atomic_unit}
       H  2.32071e-01 -1.21410e+00  1.69756e+00
1
# CELL(abcABC):   10.00000    10.00000     0.00223    90.00000    90.00000    90.00000  Step:          88  Bead:       0 positions{atomic_unit}  cell{atomic_unit}
       H  2.35255e-01 -1.23254e+00  2.45809e+00
1
# CELL(abcABC):   10.00000    10.00000     0.00311    90.00000    90.00000    90.00000  Step:          89  Bead:       0 positions{atomic_unit}  cell{atomic_unit}
       H  2.38640e-01 -1.24927e+00  3.51949e+00
1
# CELL(abcABC):   10.00000    10.00000     0.00438    90.00000    90.00000    90.00000  Step:          90  Bead:       0 positions{atomic_unit}  cell{atomic_unit}
       H  2.41824e-01 -1.26438e+00  5.02007e+00
1
# CELL(abcABC):   10.00000    10.00000     0.00617    90.00000    90.00000    90.00000  Step:          91  Bead:       0 positions{atomic_unit}  cell{atomic_unit}
       H  2.45083e-01 -1.28033e+00  7.11205e+00
1
# CELL(abcABC):   10.00000    10.00000     0.00866    90.00000    90.00000    90.00000  Step:          92  Bead:       0 positions{atomic_unit}  cell{atomic_unit}
       H  2.48148e-01 -1.29737e+00  1.00151e+01
1
# CELL(abcABC):   10.00000    10.00000     0.01211    90.00000    90.00000    90.00000  Step:          93  Bead:       0 positions{atomic_unit}  cell{atomic_unit}
       H  2.51431e-01 -1.31462e+00  1.40191e+01
1
# CELL(abcABC):   10.00000    10.00000     0.01683    90.00000    90.00000    90.00000  Step:          94  Bead:       0 positions{atomic_unit}  cell{atomic_unit}
       H  2.56625e-01 -1.33122e+00  1.95067e+01
1
# CELL(abcABC):   10.00000    10.00000     0.02336    90.00000    90.00000    90.00000  Step:          95  Bead:       0 positions{atomic_unit}  cell{atomic_unit}
       H  2.59571e-01 -1.34730e+00  2.70702e+01
1
# CELL(abcABC):   10.00000    10.00000     0.03227    90.00000    90.00000    90.00000  Step:          96  Bead:       0 positions{atomic_unit}  cell{atomic_unit}
       H  2.62253e-01 -1.36253e+00  3.74033e+01
1
# CELL(abcABC):   10.00000    10.00000     0.04430    90.00000    90.00000    90.00000  Step:          97  Bead:       0 positions{atomic_unit}  cell{atomic_unit}
       H  2.65787e-01 -1.37723e+00  5.13525e+01
1
# CELL(abcABC):   10.00000    10.00000     0.06066    90.00000    90.00000    90.00000  Step:          98  Bead:       0 positions{atomic_unit}  cell{atomic_unit}
       H  2.69218e-01 -1.39240e+00  7.03271e+01
1
# CELL(abcABC):   10.00000    10.00000     0.08254    90.00000    90.00000    90.00000  Step:          99  Bead:       0 positions{atomic_unit}  cell{atomic_unit}
       H  2.73522e-01 -1.40738e+00  9.56934e+01
1
# CELL(abcABC):   10.00000    10.00000     0.11164    90.00000    90.00000    90.00000  Step:         100  Bead:       0 positions{atomic_unit}  cell{atomic_unit}
       H  2.77279e-01 -1.42078e+00  1.29427e+02
