1
# CELL(abcABC):   10.00000    10.00000    10.00000    90.00000    90.00000    90.00000  Step:           0  Bead:       0 positions{atomic_unit}  cell{atomic_unit}
       H  0.00000e+00  0.00000e+00  0.00000e+00
1
# CELL(abcABC):   10.00000    10.00000     9.72826    90.00000    90.00000    90.00000  Step:           1  Bead:       0 positions{atomic_unit}  cell{atomic_unit}
       H -1.99794e-02  1.34440e-02  2.24725e-03
1
# CELL(abcABC):   10.00000    10.00000     8.95969    90.00000    90.00000    90.00000  Step:           2  Bead:       0 positions{atomic_unit}  cell{atomic_unit}
       H -3.76028e-02  2.69512e-02  4.83061e-03
1
# CELL(abcABC):   10.00000    10.00000     7.87231    90.00000    90.00000    90.00000  Step:           3  Bead:       0 positions{atomic_unit}  cell{atomic_unit}
       H -5.64932e-02  4.05473e-02  1.01370e-02
1
# CELL(abcABC):   10.00000    10.00000     6.63482    90.00000    90.00000    90.00000  Step:           4  Bead:       0 positions{atomic_unit}  cell{atomic_unit}
       H -7.00661e-02  5.39081e-02  1.66920e-02
1
# CELL(abcABC):   10.00000    10.00000     5.38121    90.00000    90.00000    90.00000  Step:           5  Bead:       0 positions{atomic_unit}  cell{atomic_unit}
       H -8.52219e-02  6.48635e-02  2.48737e-02
1
# CELL(abcABC):   10.00000    10.00000     4.24611    90.00000    90.00000    90.00000  Step:           6  Bead:       0 positions{atomic_unit}  cell{atomic_unit}
       H -9.56852e-02  7.64140e-02  3.17462e-02
1
# CELL(abcABC):   10.00000    10.00000     3.28561    90.00000    90.00000    90.00000  Step:           7  Bead:       0 positions{atomic_unit}  cell{atomic_unit}
       H -1.05347e-01  8.71807e-02  3.92074e-02
1
# CELL(abcABC):   10.00000    10.00000     2.50512    90.00000    90.00000    90.00000  Step:           8  Bead:       0 positions{atomic_unit}  cell{atomic_unit}
       H -1.13781e-01  9.56466e-02  5.32891e-02
1
# CELL(abcABC):   10.00000    10.00000     1.89015    90.00000    90.00000    90.00000  Step:           9  Bead:       0 positions{atomic_unit}  cell{atomic_unit}
       H -1.22300e-01  1.02700e-01  6.74342e-02
1
# CELL(abcABC):   10.00000    10.00000     1.41662    90.00000    90.00000    90.00000  Step:          10  Bead:       0 positions{atomic_unit}  cell{atomic_unit}
       H -1.27930e-01  1.12672e-01  8.52836e-02
1
# CELL(abcABC):   10.00000    10.00000     1.05931    90.00000    90.00000    90.00000  Step:          11  Bead:       0 positions{atomic_unit}  cell{atomic_unit}
       H -1.32692e-01  1.26033e-01  1.11308e-01
1
# CELL(abcABC):   10.00000    10.00000     0.79276    90.00000    90.00000    90.00000  Step:          12  Bead:       0 positions{atomic_unit}  cell{atomic_unit}
       H -1.36574e-01  1.40219e-01  1.46280e-01
1
# CELL(abcABC):   10.00000    10.00000     0.59458    90.00000    90.00000    90.00000  Step:          13  Bead:       0 positions{atomic_unit}  cell{atomic_unit}
       H -1.42650e-01  1.52302e-01  1.92107e-01
1
# CELL(abcABC):   10.00000    10.00000     0.44862    90.00000    90.00000    90.00000  Step:          14  Bead:       0 positions{atomic_unit}  cell{atomic_unit}
       H -1.46496e-01  1.61201e-01  2.51722e-01
1
# CELL(abcABC):   10.00000    10.00000     0.34253    90.00000    90.00000    90.00000  Step:          15  Bead:       0 positions{atomic_unit}  cell{atomic_unit}
       H -1.48028e-01  1.69520e-01  3.33118e-01
1
# CELL(abcABC):   10.00000    10.00000     0.26658    90.00000    90.00000    90.00000  Step:          16  Bead:       0 positions{atomic_unit}  cell{atomic_unit}
       H -1.46905e-01  1.80331e-01  4.44716e-01
1
# CELL(abcABC):   10.00000    10.00000     0.21385    90.00000    90.00000    90.00000  Step:          17  Bead:       0 positions{atomic_unit}  cell{atomic_unit}
       H -1.41557e-01  1.92666e-01  5.93778e-01
1
# CELL(abcABC):   10.00000    10.00000     0.18033    90.00000    90.00000    90.00000  Step:          18  Bead:       0 positions{atomic_unit}  cell{atomic_unit}
       H -1.37633e-01  2.05174e-01  7.93068e-01
1
# CELL(abcABC):   10.00000    10.00000     0.16226    90.00000    90.00000    90.00000  Step:          19  Bead:       0 positions{atomic_unit}  cell{atomic_unit}
       H -1.32585e-01  2.19591e-01  1.05526e+00
1
# CELL(abcABC):   10.00000    10.00000     0.15791    90.00000    90.00000    90.00000  Step:          20  Bead:       0 positions{atomic_unit}  cell{atomic_unit}
       H -1.31245e-01  2.31942e-01  1.40337e+00
1
# CELL(abcABC):   10.00000    10.00000     0.16649    90.00000    90.00000    90.00000  Step:          21  Bead:       0 positions{atomic_unit}  cell{atomic_unit}
       H -1.24952e-01  2.46722e-01  1.86557e+00
1
# CELL(abcABC):   10.00000    10.00000     0.18865    90.00000    90.00000    90.00000  Step:          22  Bead:       0 positions{atomic_unit}  cell{atomic_unit}
       H -1.17342e-01  2.59807e-01  2.47495e+00
1
# CELL(abcABC):   10.00000    10.00000     0.22583    90.00000    90.00000    90.00000  Step:          23  Bead:       0 positions{atomic_unit}  cell{atomic_unit}
       H -1.11148e-01  2.74097e-01  3.28267e+00
1
# CELL(abcABC):   10.00000    10.00000     0.27986    90.00000    90.00000    90.00000  Step:          24  Bead:       0 positions{atomic_unit}  cell{atomic_unit}
       H -1.04440e-01  2.89428e-01  4.33323e+00
1
# CELL(abcABC):   10.00000    10.00000     0.35395    90.00000    90.00000    90.00000  Step:          25  Bead:       0 positions{atomic_unit}  cell{atomic_unit}
       H -9.68180e-02  3.08902e-01  5.69432e+00
1
# CELL(abcABC):   10.00000    10.00000     0.45117    90.00000    90.00000    90.00000  Step:          26  Bead:       0 positions{atomic_unit}  cell{atomic_unit}
       H -8.69888e-02  3.27584e-01  7.42782e+00
1
# CELL(abcABC):   10.00000    10.00000     0.57816    90.00000    90.00000    90.00000  Step:          27  Bead:       0 positions{atomic_unit}  cell{atomic_unit}
       H -8.06488e-02  3.48054e-01  9.64893e+00
1
# CELL(abcABC):   10.00000    10.00000     0.74020    90.00000    90.00000    90.00000  Step:          28  Bead:       0 positions{atomic_unit}  cell{atomic_unit}
       H -7.24564e-02  3.67634e-01  1.24539e+01
1
# CELL(abcABC):   10.00000    10.00000     0.94581    90.00000    90.00000    90.00000  Step:          29  Bead:       0 positions{atomic_unit}  cell{atomic_unit}
       H -6.56803e-02  3.86795e-01  1.59879e+01
1
# CELL(abcABC):   10.00000    10.00000     1.20203    90.00000    90.00000    90.00000  Step:          30  Bead:       0 positions{atomic_unit}  cell{atomic_unit}
       H -5.82209e-02  4.06573e-01  2.03769e+01
1
# CELL(abcABC):   10.00000    10.00000     1.51803    90.00000    90.00000    90.00000  Step:          31  Bead:       0 positions{atomic_unit}  cell{atomic_unit}
       H -4.77967e-02  4.28237e-01  2.57811e+01
1
# CELL(abcABC):   10.00000    10.00000     1.90144    90.00000    90.00000    90.00000  Step:          32  Bead:       0 positions{atomic_unit}  cell{atomic_unit}
       H -3.87284e-02  4.51475e-01  3.23272e+01
1
# CELL(abcABC):   10.00000    10.00000     2.35577    90.00000    90.00000    90.00000  Step:          33  Bead:       0 positions{atomic_unit}  cell{atomic_unit}
       H -2.90459e-02  4.73142e-01  4.00781e+01
1
# CELL(abcABC):   10.00000    10.00000     2.87558    90.00000    90.00000    90.00000  Step:          34  Bead:       0 positions{atomic_unit}  cell{atomic_unit}
       H -1.60851e-02  4.94834e-01  4.89412e+01
1
# CELL(abcABC):   10.00000    10.00000     3.44366    90.00000    90.00000    90.00000  Step:          35  Bead:       0 positions{atomic_unit}  cell{atomic_unit}
       H -3.56611e-03  5.18636e-01  5.86265e+01
1
# CELL(abcABC):   10.00000    10.00000     4.03897    90.00000    90.00000    90.00000  Step:          36  Bead:       0 positions{atomic_unit}  cell{atomic_unit}
       H  8.75554e-03  5.42447e-01  6.87776e+01
1
# CELL(abcABC):   10.00000    10.00000     4.62841    90.00000    90.00000    90.00000  Step:          37  Bead:       0 positions{atomic_unit}  cell{atomic_unit}
       H  1.80004e-02  5.64499e-01  7.88270e+01
1
# CELL(abcABC):   10.00000    10.00000     5.15774    90.00000    90.00000    90.00000  Step:          38  Bead:       0 positions{atomic_unit}  cell{atomic_unit}
       H  2.67999e-02  5.89002e-01  8.78524e+01
1
# CELL(abcABC):   10.00000    10.00000     5.58499    90.00000    90.00000    90.00000  Step:          39  Bead:       0 positions{atomic_unit}  cell{atomic_unit}
       H  3.49539e-02  6.14929e-01  9.51402e+01
1
# CELL(abcABC):   10.00000    10.00000     5.85670    90.00000    90.00000    90.00000  Step:          40  Bead:       0 positions{atomic_unit}  cell{atomic_unit}
       H  4.33310e-02  6.41712e-01  9.97757e+01
1
# CELL(abcABC):   10.00000    10.00000     5.94957    90.00000    90.00000    90.00000  Step:          41  Bead:       0 positions{atomic_unit}  cell{atomic_unit}
       H  5.24386e-02  6.67069e-01  1.01366e+02
1
# CELL(abcABC):   10.00000    10.00000     5.83699    90.00000    90.00000    90.00000  Step:          42  Bead:       0 positions{atomic_unit}  cell{atomic_unit}
       H  6.38548e-02  6.91205e-01  9.94613e+01
1
# CELL(abcABC):   10.00000    10.00000     5.54818    90.00000    90.00000    90.00000  Step:          43  Bead:       0 positions{atomic_unit}  cell{atomic_unit}
       H  7.20888e-02  7.11842e-01  9.45517e+01
1
# CELL(abcABC):   10.00000    10.00000     5.12706    90.00000    90.00000    90.00000  Step:          44  Bead:       0 positions{atomic_unit}  cell{atomic_unit}
       H  8.20159e-02  7.34075e-01  8.73860e+01
1
# CELL(abcABC):   10.00000    10.00000     4.61481    90.00000    90.00000    90.00000  Step:          45  Bead:       0 positions{atomic_unit}  cell{atomic_unit}
       H  9.13879e-02  7.57025e-01  7.86671e+01
1
# CELL(abcABC):   10.00000    10.00000     4.05362    90.00000    90.00000    90.00000  Step:          46  Bead:       0 positions{atomic_unit}  cell{atomic_unit}
       H  1.02437e-01  7.78117e-01  6.91135e+01
1
# CELL(abcABC):   10.00000    10.00000     3.48393    90.00000    90.00000    90.00000  Step:          47  Bead:       0 positions{atomic_unit}  cell{atomic_unit}
       H  1.11890e-01  8.00165e-01  5.94134e+01
1
# CELL(abcABC):   10.00000    10.00000     2.93757    90.00000    90.00000    90.00000  Step:          48  Bead:       0 positions{atomic_unit}  cell{atomic_unit}
       H  1.20589e-01  8.20304e-01  5.01110e+01
1
# CELL(abcABC):   10.00000    10.00000     2.43881    90.00000    90.00000    90.00000  Step:          49  Bead:       0 positions{atomic_unit}  cell{atomic_unit}
       H  1.30352e-01  8.41562e-01  4.16219e+01
1
# CELL(abcABC):   10.00000    10.00000     2.00157    90.00000    90.00000    90.00000  Step:          50  Bead:       0 positions{atomic_unit}  cell{atomic_unit}
       H  1.36770e-01  8.61320e-01  3.41800e+01
1
# CELL(abcABC):   10.00000    10.00000     1.62723    90.00000    90.00000    90.00000  Step:          51  Bead:       0 positions{atomic_unit}  cell{atomic_unit}
       H  1.43575e-01  8.85092e-01  2.78137e+01
1
# CELL(abcABC):   10.00000    10.00000     1.31329    90.00000    90.00000    90.00000  Step:          52  Bead:       0 positions{atomic_unit}  cell{atomic_unit}
       H  1.50385e-01  9.08672e-01  2.24793e+01
1
# CELL(abcABC):   10.00000    10.00000     1.05506    90.00000    90.00000    90.00000  Step:          53  Bead:       0 positions{atomic_unit}  cell{atomic_unit}
       H  1.61451e-01  9.31280e-01  1.80991e+01
1
# CELL(abcABC):   10.00000    10.00000     0.84486    90.00000    90.00000    90.00000  Step:          54  Bead:       0 positions{atomic_unit}  cell{atomic_unit}
       H  1.70302e-01  9.54619e-01  1.45434e+01
1
# CELL(abcABC):   10.00000    10.00000     0.67685    90.00000    90.00000    90.00000  Step:          55  Bead:       0 positions{atomic_unit}  cell{atomic_unit}
       H  1.81220e-01  9.79549e-01  1.17140e+01
1
# CELL(abcABC):   10.00000    10.00000     0.54325    90.00000    90.00000    90.00000  Step:          56  Bead:       0 positions{atomic_unit}  cell{atomic_unit}
       H  1.93380e-01  1.00385e+00  9.47817e+00
1
# CELL(abcABC):   10.00000    10.00000     0.43807    90.00000    90.00000    90.00000  Step:          57  Bead:       0 positions{atomic_unit}  cell{atomic_unit}
       H  2.06887e-01  1.02682e+00  7.73418e+00
1
# CELL(abcABC):   10.00000    10.00000     0.35535    90.00000    90.00000    90.00000  Step:          58  Bead:       0 positions{atomic_unit}  cell{atomic_unit}
       H  2.20419e-01  1.04534e+00  6.38539e+00
1
# CELL(abcABC):   10.00000    10.00000     0.29157    90.00000    90.00000    90.00000  Step:          59  Bead:       0 positions{atomic_unit}  cell{atomic_unit}
       H  2.33532e-01  1.06537e+00  5.37855e+00
1
# CELL(abcABC):   10.00000    10.00000     0.24306    90.00000    90.00000    90.00000  Step:          60  Bead:       0 positions{atomic_unit}  cell{atomic_unit}
       H  2.47384e-01  1.08588e+00  4.65111e+00
1
# CELL(abcABC):   10.00000    10.00000     0.20659    90.00000    90.00000    90.00000  Step:          61  Bead:       0 positions{atomic_unit}  cell{atomic_unit}
       H  2.62842e-01  1.10428e+00  4.15556e+00
1
# CELL(abcABC):   10.00000    10.00000     0.18109    90.00000    90.00000    90.00000  Step:          62  Bead:       0 positions{atomic_unit}  cell{atomic_unit}
       H  2.75027e-01  1.12033e+00  3.87808e+00
1
# CELL(abcABC):   10.00000    10.00000     0.16490    90.00000    90.00000    90.00000  Step:          63  Bead:       0 positions{atomic_unit}  cell{atomic_unit}
       H  2.86587e-01  1.13796e+00  3.79696e+00
1
# CELL(abcABC):   10.00000    10.00000     0.15709    90.00000    90.00000    90.00000  Step:          64  Bead:       0 positions{atomic_unit}  cell{atomic_unit}
       H  2.98212e-01  1.15768e+00  3.90427e+00
1
# CELL(abcABC):   10.00000    10.00000     0.15691    90.00000    90.00000    90.00000  Step:          65  Bead:       0 positions{atomic_unit}  cell{atomic_unit}
       H  3.08449e-01  1.17733e+00  4.19737e+00
1
# CELL(abcABC):   10.00000    10.00000     0.16448    90.00000    90.00000    90.00000  Step:          66  Bead:       0 positions{atomic_unit}  cell{atomic_unit}
       H  3.16531e-01  1.19632e+00  4.69276e+00
1
# CELL(abcABC):   10.00000    10.00000     0.17982    90.00000    90.00000    90.00000  Step:          67  Bead:       0 positions{atomic_unit}  cell{atomic_unit}
       H  3.23842e-01  1.21514e+00  5.40811e+00
1
# CELL(abcABC):   10.00000    10.00000     0.20386    90.00000    90.00000    90.00000  Step:          68  Bead:       0 positions{atomic_unit}  cell{atomic_unit}
       H  3.29405e-01  1.23371e+00  6.38412e+00
1
# CELL(abcABC):   10.00000    10.00000     0.23684    90.00000    90.00000    90.00000  Step:          69  Bead:       0 positions{atomic_unit}  cell{atomic_unit}
       H  3.32816e-01  1.25154e+00  7.63441e+00
1
# CELL(abcABC):   10.00000    10.00000     0.28008    90.00000    90.00000    90.00000  Step:          70  Bead:       0 positions{atomic_unit}  cell{atomic_unit}
       H  3.39571e-01  1.27100e+00  9.21306e+00
1
# CELL(abcABC):   10.00000    10.00000     0.33499    90.00000    90.00000    90.00000  Step:          71  Bead:       0 positions{atomic_unit}  cell{atomic_unit}
       H  3.44320e-01  1.29200e+00  1.11713e+01
1
# CELL(abcABC):   10.00000    10.00000     0.40241    90.00000    90.00000    90.00000  Step:          72  Bead:       0 positions{atomic_unit}  cell{atomic_unit}
       H  3.47636e-01  1.31039e+00  1.35462e+01
1
# CELL(abcABC):   10.00000    10.00000     0.48281    90.00000    90.00000    90.00000  Step:          73  Bead:       0 positions{atomic_unit}  cell{atomic_unit}
       H  3.51032e-01  1.32823e+00  1.63586e+01
1
# CELL(abcABC):   10.00000    10.00000     0.57859    90.00000    90.00000    90.00000  Step:          74  Bead:       0 positions{atomic_unit}  cell{atomic_unit}
       H  3.56658e-01  1.34909e+00  1.96892e+01
1
# CELL(abcABC):   10.00000    10.00000     0.69320    90.00000    90.00000    90.00000  Step:          75  Bead:       0 positions{atomic_unit}  cell{atomic_unit}
       H  3.61301e-01  1.37022e+00  2.36551e+01
1
# CELL(abcABC):   10.00000    10.00000     0.82563    90.00000    90.00000    90.00000  Step:          76  Bead:       0 positions{atomic_unit}  cell{atomic_unit}
       H  3.66678e-01  1.38784e+00  2.82264e+01
1
# CELL(abcABC):   10.00000    10.00000     0.97657    90.00000    90.00000    90.00000  Step:          77  Bead:       0 positions{atomic_unit}  cell{atomic_unit}
       H  3.70187e-01  1.40480e+00  3.34307e+01
1
# CELL(abcABC):   10.00000    10.00000     1.14970    90.00000    90.00000    90.00000  Step:          78  Bead:       0 positions{atomic_unit}  cell{atomic_unit}
       H  3.74310e-01  1.42010e+00  3.93939e+01
1
# CELL(abcABC):   10.00000    10.00000     1.34582    90.00000    90.00000    90.00000  Step:          79  Bead:       0 positions{atomic_unit}  cell{atomic_unit}
       H  3.76292e-01  1.43548e+00  4.61479e+01
1
# CELL(abcABC):   10.00000    10.00000     1.56253    90.00000    90.00000    90.00000  Step:          80  Bead:       0 positions{atomic_unit}  cell{atomic_unit}
       H  3.75708e-01  1.44990e+00  5.36106e+01
1
# CELL(abcABC):   10.00000    10.00000     1.79541    90.00000    90.00000    90.00000  Step:          81  Bead:       0 positions{atomic_unit}  cell{atomic_unit}
       H  3.73392e-01  1.46449e+00  6.16287e+01
1
# CELL(abcABC):   10.00000    10.00000     2.03625    90.00000    90.00000    90.00000  Step:          82  Bead:       0 positions{atomic_unit}  cell{atomic_unit}
       H  3.72692e-01  1.47891e+00  6.99163e+01
1
# CELL(abcABC):   10.00000    10.00000     2.27715    90.00000    90.00000    90.00000  Step:          83  Bead:       0 positions{atomic_unit}  cell{atomic_unit}
       H  3.74385e-01  1.49283e+00  7.82051e+01
1
# CELL(abcABC):   10.00000    10.00000     2.51608    90.00000    90.00000    90.00000  Step:          84  Bead:       0 positions{atomic_unit}  cell{atomic_unit}
       H  3.75565e-01  1.50827e+00  8.64274e+01
1
# CELL(abcABC):   10.00000    10.00000     2.73710    90.00000    90.00000    90.00000  Step:          85  Bead:       0 positions{atomic_unit}  cell{atomic_unit}
       H  3.76101e-01  1.52696e+00  9.40332e+01
1
# CELL(abcABC):   10.00000    10.00000     2.93211    90.00000    90.00000    90.00000  Step:          86  Bead:       0 positions{atomic_unit}  cell{atomic_unit}
       H  3.75732e-01  1.54804e+00  1.00746e+02
1
# CELL(abcABC):   10.00000    10.00000     3.08644    90.00000    90.00000    90.00000  Step:          87  Bead:       0 positions{atomic_unit}  cell{atomic_unit}
       H  3.70673e-01  1.56646e+00  1.06062e+02
1
# CELL(abcABC):   10.00000    10.00000     3.19280    90.00000    90.00000    90.00000  Step:          88  Bead:       0 positions{atomic_unit}  cell{atomic_unit}
       H  3.66899e-01  1.58405e+00  1.09730e+02
1
# CELL(abcABC):   10.00000    10.00000     3.25503    90.00000    90.00000    90.00000  Step:          89  Bead:       0 positions{atomic_unit}  cell{atomic_unit}
       H  3.63505e-01  1.60161e+00  1.11882e+02
1
# CELL(abcABC):   10.00000    10.00000     3.25265    90.00000    90.00000    90.00000  Step:          90  Bead:       0 positions{atomic_unit}  cell{atomic_unit}
       H  3.62226e-01  1.61659e+00  1.11816e+02
1
# CELL(abcABC):   10.00000    10.00000     3.19329    90.00000    90.00000    90.00000  Step:          91  Bead:       0 positions{atomic_unit}  cell{atomic_unit}
       H  3.63585e-01  1.62843e+00  1.09792e+02
1
# CELL(abcABC):   10.00000    10.00000     3.08221    90.00000    90.00000    90.00000  Step:          92  Bead:       0 positions{atomic_unit}  cell{atomic_unit}
       H  3.61701e-01  1.64051e+00  1.05991e+02
1
# CELL(abcABC):   10.00000    10.00000     2.92472    90.00000    90.00000    90.00000  Step:          93  Bead:       0 positions{atomic_unit}  cell{atomic_unit}
       H  3.57196e-01  1.65021e+00  1.00597e+02
1
# CELL(abcABC):   10.00000    10.00000     2.73860    90.00000    90.00000    90.00000  Step:          94  Bead:       0 positions{atomic_unit}  cell{atomic_unit}
       H  3.50002e-01  1.65909e+00  9.42178e+01
1
# CELL(abcABC):   10.00000    10.00000     2.52215    90.00000    90.00000    90.00000  Step:          95  Bead:       0 positions{atomic_unit}  cell{atomic_unit}
       H  3.44550e-01  1.66675e+00  8.67955e+01
1
# CELL(abcABC):   10.00000    10.00000     2.28873    90.00000    90.00000    90.00000  Step:          96  Bead:       0 positions{atomic_unit}  cell{atomic_unit}
       H  3.40008e-01  1.67637e+00  7.87884e+01
1
# CELL(abcABC):   10.00000    10.00000     2.05251    90.00000    90.00000    90.00000  Step:          97  Bead:       0 positions{atomic_unit}  cell{atomic_unit}
       H  3.36859e-01  1.68536e+00  7.06875e+01
1
# CELL(abcABC):   10.00000    10.00000     1.82565    90.00000    90.00000    90.00000  Step:          98  Bead:       0 positions{atomic_unit}  cell{atomic_unit}
       H  3.34256e-01  1.69276e+00  6.29100e+01
1
# CELL(abcABC):   10.00000    10.00000     1.61151    90.00000    90.00000    90.00000  Step:          99  Bead:       0 positions{atomic_unit}  cell{atomic_unit}
       H  3.30563e-01  1.70180e+00  5.55660e+01
1
# CELL(abcABC):   10.00000    10.00000     1.41637    90.00000    90.00000    90.00000  Step:         100  Bead:       0 positions{atomic_unit}  cell{atomic_unit}
       H  3.25689e-01  1.71105e+00  4.88781e+01
