1
# CELL(abcABC):   10.00000    10.00000    10.00000    90.00000    90.00000    90.00000  Step:           0  Bead:       0 positions{atomic_unit}  cell{atomic_unit}
       H  0.00000e+00  0.00000e+00  0.00000e+00
1
# CELL(abcABC):   10.00000    10.00000     9.19424    90.00000    90.00000    90.00000  Step:           1  Bead:       0 positions{atomic_unit}  cell{atomic_unit}
       H -4.78229e-03 -1.51992e-02 -4.78005e-03
1
# CELL(abcABC):   10.00000    10.00000     7.29013    90.00000    90.00000    90.00000  Step:           2  Bead:       0 positions{atomic_unit}  cell{atomic_unit}
       H -1.16610e-02 -3.06125e-02 -9.67996e-03
1
# CELL(abcABC):   10.00000    10.00000     5.14229    90.00000    90.00000    90.00000  Step:           3  Bead:       0 positions{atomic_unit}  cell{atomic_unit}
       H -1.83536e-02 -4.60295e-02 -1.46885e-02
1
# CELL(abcABC):   10.00000    10.00000     3.33930    90.00000    90.00000    90.00000  Step:           4  Bead:       0 positions{atomic_unit}  cell{atomic_unit}
       H -2.53512e-02 -6.12430e-02 -2.11807e-02
1
# CELL(abcABC):   10.00000    10.00000     2.06249    90.00000    90.00000    90.00000  Step:           5  Bead:       0 positions{atomic_unit}  cell{atomic_unit}
       H -3.31697e-02 -7.60492e-02 -3.00305e-02
1
# CELL(abcABC):   10.00000    10.00000     1.23860    90.00000    90.00000    90.00000  Step:           6  Bead:       0 positions{atomic_unit}  cell{atomic_unit}
       H -4.07940e-02 -9.18625e-02 -4.18097e-02
1
# CELL(abcABC):   10.00000    10.00000     0.73272    90.00000    90.00000    90.00000  Step:           7  Bead:       0 positions{atomic_unit}  cell{atomic_unit}
       H -4.85265e-02 -1.07094e-01 -6.44925e-02
1
# CELL(abcABC):   10.00000    10.00000     0.43348    90.00000    90.00000    90.00000  Step:           8  Bead:       0 positions{atomic_unit}  cell{atomic_unit}
       H -5.75553e-02 -1.21864e-01 -1.05819e-01
1
# CELL(abcABC):   10.00000    10.00000     0.26103    90.00000    90.00000    90.00000  Step:           9  Bead:       0 positions{atomic_unit}  cell{atomic_unit}
       H -6.80447e-02 -1.36843e-01 -1.78503e-01
1
# CELL(abcABC):   10.00000    10.00000     0.16627    90.00000    90.00000    90.00000  Step:          10  Bead:       0 positions{atomic_unit}  cell{atomic_unit}
       H -7.76105e-02 -1.52595e-01 -3.01722e-01
1
# CELL(abcABC):   10.00000    10.00000     0.12119    90.00000    90.00000    90.00000  Step:          11  Bead:       0 positions{atomic_unit}  cell{atomic_unit}
       H -8.61900e-02 -1.68016e-01 -5.06415e-01
1
# CELL(abcABC):   10.00000    10.00000     0.11293    90.00000    90.00000    90.00000  Step:          12  Bead:       0 positions{atomic_unit}  cell{atomic_unit}
       H -9.53698e-02 -1.83363e-01 -8.55242e-01
1
# CELL(abcABC):   10.00000    10.00000     0.13850    90.00000    90.00000    90.00000  Step:          13  Bead:       0 positions{atomic_unit}  cell{atomic_unit}
       H -1.05617e-01 -1.98829e-01 -1.45672e+00
1
# CELL(abcABC):   10.00000    10.00000     0.20201    90.00000    90.00000    90.00000  Step:          14  Bead:       0 positions{atomic_unit}  cell{atomic_unit}
       H -1.15992e-01 -2.14241e-01 -2.45873e+00
1
# CELL(abcABC):   10.00000    10.00000     0.31766    90.00000    90.00000    90.00000  Step:          15  Bead:       0 positions{atomic_unit}  cell{atomic_unit}
       H -1.26320e-01 -2.30541e-01 -4.09578e+00
1
# CELL(abcABC):   10.00000    10.00000     0.51143    90.00000    90.00000    90.00000  Step:          16  Bead:       0 positions{atomic_unit}  cell{atomic_unit}
       H -1.37291e-01 -2.48823e-01 -6.73927e+00
1
# CELL(abcABC):   10.00000    10.00000     0.82370    90.00000    90.00000    90.00000  Step:          17  Bead:       0 positions{atomic_unit}  cell{atomic_unit}
       H -1.47045e-01 -2.66637e-01 -1.09436e+01
1
# CELL(abcABC):   10.00000    10.00000     1.30536    90.00000    90.00000    90.00000  Step:          18  Bead:       0 positions{atomic_unit}  cell{atomic_unit}
       H -1.55234e-01 -2.84311e-01 -1.73974e+01
1
# CELL(abcABC):   10.00000    10.00000     2.02037    90.00000    90.00000    90.00000  Step:          19  Bead:       0 positions{atomic_unit}  cell{atomic_unit}
       H -1.62947e-01 -3.00929e-01 -2.69598e+01
1
# CELL(abcABC):   10.00000    10.00000     3.02078    90.00000    90.00000    90.00000  Step:          20  Bead:       0 positions{atomic_unit}  cell{atomic_unit}
       H -1.71460e-01 -3.17216e-01 -4.03317e+01
1
# CELL(abcABC):   10.00000    10.00000     4.28400    90.00000    90.00000    90.00000  Step:          21  Bead:       0 positions{atomic_unit}  cell{atomic_unit}
       H -1.79831e-01 -3.31309e-01 -5.72130e+01
1
# CELL(abcABC):   10.00000    10.00000     5.64056    90.00000    90.00000    90.00000  Step:          22  Bead:       0 positions{atomic_unit}  cell{atomic_unit}
       H -1.87764e-01 -3.45328e-01 -7.53430e+01
1
# CELL(abcABC):   10.00000    10.00000     6.74315    90.00000    90.00000    90.00000  Step:          23  Bead:       0 positions{atomic_unit}  cell{atomic_unit}
       H -1.98253e-01 -3.57295e-01 -9.00807e+01
1
# CELL(abcABC):   10.00000    10.00000     7.20616    90.00000    90.00000    90.00000  Step:          24  Bead:       0 positions{atomic_unit}  cell{atomic_unit}
       H -2.06097e-01 -3.67285e-01 -9.62737e+01
1
# CELL(abcABC):   10.00000    10.00000     6.83119    90.00000    90.00000    90.00000  Step:          25  Bead:       0 positions{atomic_unit}  cell{atomic_unit}
       H -2.14825e-01 -3.75785e-01 -9.12708e+01
1
# CELL(abcABC):   10.00000    10.00000     5.79391    90.00000    90.00000    90.00000  Step:          26  Bead:       0 positions{atomic_unit}  cell{atomic_unit}
       H -2.24718e-01 -3.84232e-01 -7.74187e+01
1
# CELL(abcABC):   10.00000    10.00000     4.48159    90.00000    90.00000    90.00000  Step:          27  Bead:       0 positions{atomic_unit}  cell{atomic_unit}
       H -2.33370e-01 -3.91300e-01 -5.98908e+01
1
# CELL(abcABC):   10.00000    10.00000     3.22486    90.00000    90.00000    90.00000  Step:          28  Bead:       0 positions{atomic_unit}  cell{atomic_unit}
       H -2.41892e-01 -3.99654e-01 -4.31073e+01
1
# CELL(abcABC):   10.00000    10.00000     2.21304    90.00000    90.00000    90.00000  Step:          29  Bead:       0 positions{atomic_unit}  cell{atomic_unit}
       H -2.50715e-01 -4.07781e-01 -2.95992e+01
1
# CELL(abcABC):   10.00000    10.00000     1.46832    90.00000    90.00000    90.00000  Step:          30  Bead:       0 positions{atomic_unit}  cell{atomic_unit}
       H -2.59731e-01 -4.16243e-01 -1.96646e+01
1
# CELL(abcABC):   10.00000    10.00000     0.95823    90.00000    90.00000    90.00000  Step:          31  Bead:       0 positions{atomic_unit}  cell{atomic_unit}
       H -2.68300e-01 -4.23527e-01 -1.28711e+01
1
# CELL(abcABC):   10.00000    10.00000     0.62068    90.00000    90.00000    90.00000  Step:          32  Bead:       0 positions{atomic_unit}  cell{atomic_unit}
       H -2.78259e-01 -4.28374e-01 -8.39487e+00
1
# CELL(abcABC):   10.00000    10.00000     0.40440    90.00000    90.00000    90.00000  Step:          33  Bead:       0 positions{atomic_unit}  cell{atomic_unit}
       H -2.86410e-01 -4.31883e-01 -5.55666e+00
1
# CELL(abcABC):   10.00000    10.00000     0.27030    90.00000    90.00000    90.00000  Step:          34  Bead:       0 positions{atomic_unit}  cell{atomic_unit}
       H -2.95940e-01 -4.36963e-01 -3.84621e+00
1
# CELL(abcABC):   10.00000    10.00000     0.19195    90.00000    90.00000    90.00000  Step:          35  Bead:       0 positions{atomic_unit}  cell{atomic_unit}
       H -3.05985e-01 -4.43361e-01 -2.92444e+00
1
# CELL(abcABC):   10.00000    10.00000     0.15351    90.00000    90.00000    90.00000  Step:          36  Bead:       0 positions{atomic_unit}  cell{atomic_unit}
       H -3.17587e-01 -4.47940e-01 -2.60584e+00
1
# CELL(abcABC):   10.00000    10.00000     0.14696    90.00000    90.00000    90.00000  Step:          37  Bead:       0 positions{atomic_unit}  cell{atomic_unit}
       H -3.29603e-01 -4.52254e-01 -2.82166e+00
1
# CELL(abcABC):   10.00000    10.00000     0.16988    90.00000    90.00000    90.00000  Step:          38  Bead:       0 positions{atomic_unit}  cell{atomic_unit}
       H -3.41586e-01 -4.54643e-01 -3.60182e+00
1
# CELL(abcABC):   10.00000    10.00000     0.22540    90.00000    90.00000    90.00000  Step:          39  Bead:       0 positions{atomic_unit}  cell{atomic_unit}
       H -3.53132e-01 -4.55939e-01 -5.07217e+00
1
# CELL(abcABC):   10.00000    10.00000     0.32116    90.00000    90.00000    90.00000  Step:          40  Bead:       0 positions{atomic_unit}  cell{atomic_unit}
       H -3.64482e-01 -4.55780e-01 -7.44846e+00
1
# CELL(abcABC):   10.00000    10.00000     0.46957    90.00000    90.00000    90.00000  Step:          41  Bead:       0 positions{atomic_unit}  cell{atomic_unit}
       H -3.75627e-01 -4.57372e-01 -1.10440e+01
1
# CELL(abcABC):   10.00000    10.00000     0.69070    90.00000    90.00000    90.00000  Step:          42  Bead:       0 positions{atomic_unit}  cell{atomic_unit}
       H -3.86206e-01 -4.59331e-01 -1.63496e+01
1
# CELL(abcABC):   10.00000    10.00000     1.00609    90.00000    90.00000    90.00000  Step:          43  Bead:       0 positions{atomic_unit}  cell{atomic_unit}
       H -3.98400e-01 -4.61651e-01 -2.38852e+01
1
# CELL(abcABC):   10.00000    10.00000     1.44126    90.00000    90.00000    90.00000  Step:          44  Bead:       0 positions{atomic_unit}  cell{atomic_unit}
       H -4.10675e-01 -4.63765e-01 -3.42637e+01
1
# CELL(abcABC):   10.00000    10.00000     2.01792    90.00000    90.00000    90.00000  Step:          45  Bead:       0 positions{atomic_unit}  cell{atomic_unit}
       H -4.23385e-01 -4.65513e-01 -4.80048e+01
1
# CELL(abcABC):   10.00000    10.00000     2.73026    90.00000    90.00000    90.00000  Step:          46  Bead:       0 positions{atomic_unit}  cell{atomic_unit}
       H -4.34118e-01 -4.65677e-01 -6.49733e+01
1
# CELL(abcABC):   10.00000    10.00000     3.52436    90.00000    90.00000    90.00000  Step:          47  Bead:       0 positions{atomic_unit}  cell{atomic_unit}
       H -4.46510e-01 -4.65747e-01 -8.38877e+01
1
# CELL(abcABC):   10.00000    10.00000     4.28274    90.00000    90.00000    90.00000  Step:          48  Bead:       0 positions{atomic_unit}  cell{atomic_unit}
       H -4.59627e-01 -4.68815e-01 -1.01953e+02
1
# CELL(abcABC):   10.00000    10.00000     4.83100    90.00000    90.00000    90.00000  Step:          49  Bead:       0 positions{atomic_unit}  cell{atomic_unit}
       H -4.71843e-01 -4.70097e-01 -1.15015e+02
1
# CELL(abcABC):   10.00000    10.00000     5.02914    90.00000    90.00000    90.00000  Step:          50  Bead:       0 positions{atomic_unit}  cell{atomic_unit}
       H -4.84437e-01 -4.71290e-01 -1.19741e+02
1
# CELL(abcABC):   10.00000    10.00000     4.81992    90.00000    90.00000    90.00000  Step:          51  Bead:       0 positions{atomic_unit}  cell{atomic_unit}
       H -4.96683e-01 -4.71978e-01 -1.14769e+02
1
# CELL(abcABC):   10.00000    10.00000     4.27219    90.00000    90.00000    90.00000  Step:          52  Bead:       0 positions{atomic_unit}  cell{atomic_unit}
       H -5.09267e-01 -4.70136e-01 -1.01736e+02
1
# CELL(abcABC):   10.00000    10.00000     3.54091    90.00000    90.00000    90.00000  Step:          53  Bead:       0 positions{atomic_unit}  cell{atomic_unit}
       H -5.21579e-01 -4.67953e-01 -8.43306e+01
1
# CELL(abcABC):   10.00000    10.00000     2.77303    90.00000    90.00000    90.00000  Step:          54  Bead:       0 positions{atomic_unit}  cell{atomic_unit}
       H -5.35261e-01 -4.66104e-01 -6.60526e+01
1
# CELL(abcABC):   10.00000    10.00000     2.07426    90.00000    90.00000    90.00000  Step:          55  Bead:       0 positions{atomic_unit}  cell{atomic_unit}
       H -5.49233e-01 -4.64391e-01 -4.94200e+01
1
# CELL(abcABC):   10.00000    10.00000     1.50386    90.00000    90.00000    90.00000  Step:          56  Bead:       0 positions{atomic_unit}  cell{atomic_unit}
       H -5.62302e-01 -4.60104e-01 -3.58461e+01
1
# CELL(abcABC):   10.00000    10.00000     1.06664    90.00000    90.00000    90.00000  Step:          57  Bead:       0 positions{atomic_unit}  cell{atomic_unit}
       H -5.74606e-01 -4.56419e-01 -2.54466e+01
1
# CELL(abcABC):   10.00000    10.00000     0.74669    90.00000    90.00000    90.00000  Step:          58  Bead:       0 positions{atomic_unit}  cell{atomic_unit}
       H -5.86500e-01 -4.53337e-01 -1.78467e+01
1
# CELL(abcABC):   10.00000    10.00000     0.51946    90.00000    90.00000    90.00000  Step:          59  Bead:       0 positions{atomic_unit}  cell{atomic_unit}
       H -5.99223e-01 -4.50622e-01 -1.24615e+01
1
# CELL(abcABC):   10.00000    10.00000     0.36208    90.00000    90.00000    90.00000  Step:          60  Bead:       0 positions{atomic_unit}  cell{atomic_unit}
       H -6.12349e-01 -4.50200e-01 -8.75103e+00
1
# CELL(abcABC):   10.00000    10.00000     0.25514    90.00000    90.00000    90.00000  Step:          61  Bead:       0 positions{atomic_unit}  cell{atomic_unit}
       H -6.25973e-01 -4.47921e-01 -6.25995e+00
1
# CELL(abcABC):   10.00000    10.00000     0.18471    90.00000    90.00000    90.00000  Step:          62  Bead:       0 positions{atomic_unit}  cell{atomic_unit}
       H -6.39506e-01 -4.47071e-01 -4.66296e+00
1
# CELL(abcABC):   10.00000    10.00000     0.14074    90.00000    90.00000    90.00000  Step:          63  Bead:       0 positions{atomic_unit}  cell{atomic_unit}
       H -6.55343e-01 -4.46073e-01 -3.73144e+00
1
# CELL(abcABC):   10.00000    10.00000     0.11692    90.00000    90.00000    90.00000  Step:          64  Bead:       0 positions{atomic_unit}  cell{atomic_unit}
       H -6.71575e-01 -4.46570e-01 -3.33123e+00
1
# CELL(abcABC):   10.00000    10.00000     0.11038    90.00000    90.00000    90.00000  Step:          65  Bead:       0 positions{atomic_unit}  cell{atomic_unit}
       H -6.87396e-01 -4.45042e-01 -3.41926e+00
1
# CELL(abcABC):   10.00000    10.00000     0.11942    90.00000    90.00000    90.00000  Step:          66  Bead:       0 positions{atomic_unit}  cell{atomic_unit}
       H -7.04602e-01 -4.41962e-01 -3.98701e+00
1
# CELL(abcABC):   10.00000    10.00000     0.14478    90.00000    90.00000    90.00000  Step:          67  Bead:       0 positions{atomic_unit}  cell{atomic_unit}
       H -7.21958e-01 -4.38999e-01 -5.09927e+00
1
# CELL(abcABC):   10.00000    10.00000     0.18859    90.00000    90.00000    90.00000  Step:          68  Bead:       0 positions{atomic_unit}  cell{atomic_unit}
       H -7.38793e-01 -4.35189e-01 -6.86015e+00
1
# CELL(abcABC):   10.00000    10.00000     0.25557    90.00000    90.00000    90.00000  Step:          69  Bead:       0 positions{atomic_unit}  cell{atomic_unit}
       H -7.55186e-01 -4.30841e-01 -9.46324e+00
1
# CELL(abcABC):   10.00000    10.00000     0.35296    90.00000    90.00000    90.00000  Step:          70  Bead:       0 positions{atomic_unit}  cell{atomic_unit}
       H -7.71876e-01 -4.24492e-01 -1.31925e+01
1
# CELL(abcABC):   10.00000    10.00000     0.48979    90.00000    90.00000    90.00000  Step:          71  Bead:       0 positions{atomic_unit}  cell{atomic_unit}
       H -7.87012e-01 -4.18321e-01 -1.83956e+01
1
# CELL(abcABC):   10.00000    10.00000     0.67842    90.00000    90.00000    90.00000  Step:          72  Bead:       0 positions{atomic_unit}  cell{atomic_unit}
       H -8.01010e-01 -4.12251e-01 -2.55443e+01
1
# CELL(abcABC):   10.00000    10.00000     0.92864    90.00000    90.00000    90.00000  Step:          73  Bead:       0 positions{atomic_unit}  cell{atomic_unit}
       H -8.14999e-01 -4.05206e-01 -3.50132e+01
1
# CELL(abcABC):   10.00000    10.00000     1.25245    90.00000    90.00000    90.00000  Step:          74  Bead:       0 positions{atomic_unit}  cell{atomic_unit}
       H -8.29382e-01 -3.97418e-01 -4.72594e+01
1
# CELL(abcABC):   10.00000    10.00000     1.65445    90.00000    90.00000    90.00000  Step:          75  Bead:       0 positions{atomic_unit}  cell{atomic_unit}
       H -8.40135e-01 -3.89888e-01 -6.24560e+01
1
# CELL(abcABC):   10.00000    10.00000     2.12246    90.00000    90.00000    90.00000  Step:          76  Bead:       0 positions{atomic_unit}  cell{atomic_unit}
       H -8.49502e-01 -3.83500e-01 -8.01441e+01
1
# CELL(abcABC):   10.00000    10.00000     2.62208    90.00000    90.00000    90.00000  Step:          77  Bead:       0 positions{atomic_unit}  cell{atomic_unit}
       H -8.59324e-01 -3.76699e-01 -9.90265e+01
1
# CELL(abcABC):   10.00000    10.00000     3.08745    90.00000    90.00000    90.00000  Step:          78  Bead:       0 positions{atomic_unit}  cell{atomic_unit}
       H -8.68476e-01 -3.70419e-01 -1.16616e+02
1
# CELL(abcABC):   10.00000    10.00000     3.44085    90.00000    90.00000    90.00000  Step:          79  Bead:       0 positions{atomic_unit}  cell{atomic_unit}
       H -8.77758e-01 -3.65909e-01 -1.29978e+02
1
# CELL(abcABC):   10.00000    10.00000     3.61358    90.00000    90.00000    90.00000  Step:          80  Bead:       0 positions{atomic_unit}  cell{atomic_unit}
       H -8.86929e-01 -3.61561e-01 -1.36517e+02
1
# CELL(abcABC):   10.00000    10.00000     3.56371    90.00000    90.00000    90.00000  Step:          81  Bead:       0 positions{atomic_unit}  cell{atomic_unit}
       H -8.97298e-01 -3.58532e-01 -1.34645e+02
1
# CELL(abcABC):   10.00000    10.00000     3.31071    90.00000    90.00000    90.00000  Step:          82  Bead:       0 positions{atomic_unit}  cell{atomic_unit}
       H -9.07252e-01 -3.57578e-01 -1.25099e+02
1
# CELL(abcABC):   10.00000    10.00000     2.91372    90.00000    90.00000    90.00000  Step:          83  Bead:       0 positions{atomic_unit}  cell{atomic_unit}
       H -9.16675e-01 -3.54775e-01 -1.10110e+02
1
# CELL(abcABC):   10.00000    10.00000     2.44794    90.00000    90.00000    90.00000  Step:          84  Bead:       0 positions{atomic_unit}  cell{atomic_unit}
       H -9.24719e-01 -3.51405e-01 -9.25230e+01
1
# CELL(abcABC):   10.00000    10.00000     1.97874    90.00000    90.00000    90.00000  Step:          85  Bead:       0 positions{atomic_unit}  cell{atomic_unit}
       H -9.33102e-01 -3.48682e-01 -7.48051e+01
1
# CELL(abcABC):   10.00000    10.00000     1.55393    90.00000    90.00000    90.00000  Step:          86  Bead:       0 positions{atomic_unit}  cell{atomic_unit}
       H -9.43087e-01 -3.47273e-01 -5.87643e+01
1
# CELL(abcABC):   10.00000    10.00000     1.19335    90.00000    90.00000    90.00000  Step:          87  Bead:       0 positions{atomic_unit}  cell{atomic_unit}
       H -9.54320e-01 -3.45490e-01 -4.51506e+01
1
# CELL(abcABC):   10.00000    10.00000     0.90298    90.00000    90.00000    90.00000  Step:          88  Bead:       0 positions{atomic_unit}  cell{atomic_unit}
       H -9.66656e-01 -3.42631e-01 -3.41938e+01
1
# CELL(abcABC):   10.00000    10.00000     0.67737    90.00000    90.00000    90.00000  Step:          89  Bead:       0 positions{atomic_unit}  cell{atomic_unit}
       H -9.78552e-01 -3.39032e-01 -2.56896e+01
1
# CELL(abcABC):   10.00000    10.00000     0.50678    90.00000    90.00000    90.00000  Step:          90  Bead:       0 positions{atomic_unit}  cell{atomic_unit}
       H -9.90574e-01 -3.36073e-01 -1.92728e+01
1
# CELL(abcABC):   10.00000    10.00000     0.38040    90.00000    90.00000    90.00000  Step:          91  Bead:       0 positions{atomic_unit}  cell{atomic_unit}
       H -1.00182e+00 -3.34118e-01 -1.45385e+01
1
# CELL(abcABC):   10.00000    10.00000     0.28835    90.00000    90.00000    90.00000  Step:          92  Bead:       0 positions{atomic_unit}  cell{atomic_unit}
       H -1.01273e+00 -3.29949e-01 -1.11167e+01
1
# CELL(abcABC):   10.00000    10.00000     0.22373    90.00000    90.00000    90.00000  Step:          93  Bead:       0 positions{atomic_unit}  cell{atomic_unit}
       H -1.02403e+00 -3.27064e-01 -8.75034e+00
1
# CELL(abcABC):   10.00000    10.00000     0.18092    90.00000    90.00000    90.00000  Step:          94  Bead:       0 positions{atomic_unit}  cell{atomic_unit}
       H -1.03577e+00 -3.24320e-01 -7.23579e+00
1
# CELL(abcABC):   10.00000    10.00000     0.15538    90.00000    90.00000    90.00000  Step:          95  Bead:       0 positions{atomic_unit}  cell{atomic_unit}
       H -1.04669e+00 -3.20902e-01 -6.40880e+00
1
# CELL(abcABC):   10.00000    10.00000     0.14499    90.00000    90.00000    90.00000  Step:          96  Bead:       0 positions{atomic_unit}  cell{atomic_unit}
       H -1.05928e+00 -3.17386e-01 -6.20267e+00
1
# CELL(abcABC):   10.00000    10.00000     0.14801    90.00000    90.00000    90.00000  Step:          97  Bead:       0 positions{atomic_unit}  cell{atomic_unit}
       H -1.07286e+00 -3.14217e-01 -6.56557e+00
1
# CELL(abcABC):   10.00000    10.00000     0.16423    90.00000    90.00000    90.00000  Step:          98  Bead:       0 positions{atomic_unit}  cell{atomic_unit}
       H -1.08614e+00 -3.10860e-01 -7.51282e+00
1
# CELL(abcABC):   10.00000    10.00000     0.19397    90.00000    90.00000    90.00000  Step:          99  Bead:       0 positions{atomic_unit}  cell{atomic_unit}
       H -1.09993e+00 -3.07985e-01 -9.07648e+00
1
# CELL(abcABC):   10.00000    10.00000     0.23893    90.00000    90.00000    90.00000  Step:         100  Bead:       0 positions{atomic_unit}  cell{atomic_unit}
       H -1.11552e+00 -3.04660e-01 -1.13516e+01
